 vasp.6.1.2 22Jul20 (build Aug 13 2020 05:42:33) complex                        
  
 executed on             LinuxIFC date 2025.05.05  13:00:30
 running on   32 total cores
 distrk:  each k-point on   32 cores,    1 groups
 distr:  one band on NCORE=   1 cores,   32 groups


--------------------------------------------------------------------------------------------------------


 INCAR:
 POTCAR:    PAW_PBE S 06Sep2000                   
 POTCAR:    PAW_PBE Zn 06Sep2000                  
 -----------------------------------------------------------------------------
|                                                                             |
|           W    W    AA    RRRRR   N    N  II  N    N   GGGG   !!!           |
|           W    W   A  A   R    R  NN   N  II  NN   N  G    G  !!!           |
|           W    W  A    A  R    R  N N  N  II  N N  N  G       !!!           |
|           W WW W  AAAAAA  RRRRR   N  N N  II  N  N N  G  GGG   !            |
|           WW  WW  A    A  R   R   N   NN  II  N   NN  G    G                |
|           W    W  A    A  R    R  N    N  II  N    N   GGGG   !!!           |
|                                                                             |
|     For optimal performance we recommend to set                             |
|       NCORE = 4 - approx SQRT(number of cores).                             |
|     NCORE specifies how many cores store one orbital (NPAR=cpu/NCORE).      |
|     This setting can greatly improve the performance of VASP for DFT.       |
|     The default, NCORE=1 might be grossly inefficient on modern             |
|     multi-core architectures or massively parallel machines. Do your        |
|     own testing!!!!                                                         |
|     Unfortunately you need to use the default for GW and RPA                |
|     calculations (for HF NCORE is supported but not extensively tested      |
|     yet).                                                                   |
|                                                                             |
 -----------------------------------------------------------------------------

 POTCAR:    PAW_PBE S 06Sep2000                   
   SHA256 =  0fc7481fb0695f01bdc6462160264c5c84044ae9ec85a907d398b887a2bc3132 S/POTCAR              
   COPYR  = (c) Copyright 06Sep2000 Georg Kresse                                                    
   COPYR  = This file is part of the software VASP. Any use, copying, and all other rights are regul
   COPYR  = If you do not have a valid VASP license, you may not use, copy or distribute this file. 
   VRHFIN =S : s2p4                                                                                 
   LEXCH  = PE                                                                                      
   EATOM  =   276.8230 eV,   20.3459 Ry                                                             
                                                                                                    
   TITEL  = PAW_PBE S 06Sep2000                                                                     
   LULTRA =        F    use ultrasoft PP ?                                                          
   IUNSCR =        1    unscreen: 0-lin 1-nonlin 2-no                                               
   RPACOR =    1.500    partial core radius                                                         
   POMASS =   32.066; ZVAL   =    6.000    mass and valenz                                          
   RCORE  =    1.900    outmost cutoff radius                                                       
   RWIGS  =    2.200; RWIGS  =    1.164    wigner-seitz radius (au A)                               
   ENMAX  =  258.689; ENMIN  =  194.016 eV                                                          
   ICORE  =        2    local potential                                                             
   LCOR   =        T    correct aug charges                                                         
   LPAW   =        T    paw PP                                                                      
   EAUG   =  335.092                                                                                
   DEXC   =    0.000                                                                                
   RMAX   =    1.942    core radius for proj-oper                                                   
   RAUG   =    1.300    factor for augmentation sphere                                              
   RDEP   =    1.954    radius for radial grids                                                     
   RDEPT  =    1.744    core radius for aug-charge                                                  
                                                                                                    
   Atomic configuration                                                                             
    6 entries                                                                                       
     n  l   j            E        occ.                                                              
     1  0  0.50     -2405.8406   2.0000                                                             
     2  0  0.50      -211.7007   2.0000                                                             
     2  1  1.50      -156.4958   6.0000                                                             
     3  0  0.50       -17.2562   2.0000                                                             
     3  1  0.50        -7.0085   4.0000                                                             
     3  2  1.50        -6.8029   0.0000                                                             
   Description                                                                                      
     l       E           TYP  RCUT    TYP  RCUT                                                     
     0    -17.2561641     23  1.900                                                                 
     0    -15.8743224     23  1.900                                                                 
     1     -7.0085400     23  1.900                                                                 
     1     -2.7779785     23  1.900                                                                 
     2     -6.8029130     23  1.900                                                                 
  local pseudopotential read in
  partial core-charges read in
  partial kinetic energy density read in
  atomic valenz-charges read in
  non local Contribution for L=           0  read in
    real space projection operators read in
  non local Contribution for L=           0  read in
    real space projection operators read in
  non local Contribution for L=           1  read in
    real space projection operators read in
  non local Contribution for L=           1  read in
    real space projection operators read in
    PAW grid and wavefunctions read in
 
   number of l-projection  operators is LMAX  =           4
   number of lm-projection operators is LMMAX =           8
 
 POTCAR:    PAW_PBE Zn 06Sep2000                  
   SHA256 =  501fddbd8274dd8e9725d4f3de27861d7f1e553a7e18441bc79fed8f346e7f23 Zn/POTCAR             
   COPYR  = (c) Copyright 06Sep2000 Georg Kresse                                                    
   COPYR  = This file is part of the software VASP. Any use, copying, and all other rights are regul
   COPYR  = If you do not have a valid VASP license, you may not use, copy or distribute this file. 
   VRHFIN =Zn: d10 p2                                                                               
   LEXCH  = PE                                                                                      
   EATOM  =  1748.8345 eV,  128.5357 Ry                                                             
                                                                                                    
   TITEL  = PAW_PBE Zn 06Sep2000                                                                    
   LULTRA =        F    use ultrasoft PP ?                                                          
   IUNSCR =        1    unscreen: 0-lin 1-nonlin 2-no                                               
   RPACOR =    2.000    partial core radius                                                         
   POMASS =   65.390; ZVAL   =   12.000    mass and valenz                                          
   RCORE  =    2.300    outmost cutoff radius                                                       
   RWIGS  =    2.400; RWIGS  =    1.270    wigner-seitz radius (au A)                               
   ENMAX  =  276.723; ENMIN  =  207.542 eV                                                          
   RCLOC  =    1.828    cutoff for local pot                                                        
   LCOR   =        T    correct aug charges                                                         
   LPAW   =        T    paw PP                                                                      
   EAUG   =  575.892                                                                                
   DEXC   =    0.000                                                                                
   RMAX   =    2.347    core radius for proj-oper                                                   
   RAUG   =    1.300    factor for augmentation sphere                                              
   RDEP   =    2.324    radius for radial grids                                                     
   RDEPT  =    1.788    core radius for aug-charge                                                  
                                                                                                    
   Atomic configuration                                                                             
    9 entries                                                                                       
     n  l   j            E        occ.                                                              
     1  0  0.50     -9524.6913   2.0000                                                             
     2  0  0.50     -1158.1882   2.0000                                                             
     2  1  1.50     -1003.8506   6.0000                                                             
     3  0  0.50      -129.2194   2.0000                                                             
     3  1  1.50       -83.3890   6.0000                                                             
     3  2  2.50       -10.1410  10.0000                                                             
     4  0  0.50        -5.9785   2.0000                                                             
     4  1  0.50        -4.0817   0.0000                                                             
     4  3  2.50        -1.3606   0.0000                                                             
   Description                                                                                      
     l       E           TYP  RCUT    TYP  RCUT                                                     
     2    -10.1410010     23  2.300                                                                 
     2    -11.5015836     23  2.300                                                                 
     0     -5.9785163     23  2.300                                                                 
     0      1.1858015     23  2.300                                                                 
     1     -2.7211652     23  2.300                                                                 
     1     13.2444212     23  2.300                                                                 
  local pseudopotential read in
  partial core-charges read in
  partial kinetic energy density read in
  atomic valenz-charges read in
  non local Contribution for L=           2  read in
    real space projection operators read in
  non local Contribution for L=           2  read in
    real space projection operators read in
  non local Contribution for L=           0  read in
    real space projection operators read in
  non local Contribution for L=           0  read in
    real space projection operators read in
  non local Contribution for L=           1  read in
    real space projection operators read in
  non local Contribution for L=           1  read in
    real space projection operators read in
    PAW grid and wavefunctions read in
 
   number of l-projection  operators is LMAX  =           6
   number of lm-projection operators is LMMAX =          18
 
  PAW_PBE S 06Sep2000                   :
 energy of atom  1       EATOM= -276.8230
 kinetic energy error for atom=    0.0020 (will be added to EATOM!!)
  PAW_PBE Zn 06Sep2000                  :
 energy of atom  2       EATOM=-1748.8345
 kinetic energy error for atom=    0.0029 (will be added to EATOM!!)
 
 
 POSCAR: S2Zn2
  positions in direct lattice
  velocities in cartesian coordinates
 exchange correlation table for  LEXCH =        8
   RHO(1)=    0.500       N(1)  =     2000
   RHO(2)=  100.500       N(2)  =     4000
 


--------------------------------------------------------------------------------------------------------


 ion  position               nearest neighbor table
   1  0.333  0.667  0.417-   4 2.31   4 2.31   4 2.31   3 2.58
   2  0.667  0.333  0.583-   3 2.31   3 2.31   3 2.31   4 2.58
   3  0.333  0.667  0.554-   2 2.31   2 2.31   2 2.31   1 2.58   4 3.04   4 3.04   4 3.04
   4  0.667  0.333  0.446-   1 2.31   1 2.31   1 2.31   2 2.58   3 3.04   3 3.04   3 3.04
 
  LATTYP: Found a hexagonal cell.
 ALAT       =     3.8918471068
 C/A-ratio  =     4.8449489693
  
  Lattice vectors:
  
 A1 = (   3.8918471068,   0.0000000000,   0.0000000000)
 A2 = (  -1.9459235534,   3.3704384621,   0.0000000000)
 A3 = (   0.0000000000,   0.0000000000,  18.8558006287)


Analysis of symmetry for initial positions (statically):
=====================================================================
 Subroutine PRICEL returns:
 Original cell was already a primitive cell.
 

 Routine SETGRP: Setting up the symmetry group for a 
 hexagonal supercell.


 Subroutine GETGRP returns: Found 12 space group operations
 (whereof 12 operations were pure point group operations)
 out of a pool of 24 trial point group operations.


The static configuration has the point symmetry D_3d.


Analysis of symmetry for dynamics (positions and initial velocities):
=====================================================================
 Subroutine PRICEL returns:
 Original cell was already a primitive cell.
 

 Routine SETGRP: Setting up the symmetry group for a 
 hexagonal supercell.


 Subroutine GETGRP returns: Found 12 space group operations
 (whereof 12 operations were pure point group operations)
 out of a pool of 24 trial point group operations.


The dynamic configuration has the point symmetry D_3d.


 Subroutine INISYM returns: Found 12 space group operations
 (whereof 12 operations are pure point group operations),
 and found     1 'primitive' translations


----------------------------------------------------------------------------------------

                                     Primitive cell                                     

  volume of cell :     247.3359

  direct lattice vectors                    reciprocal lattice vectors
     3.891847107  0.000000000  0.000000000     0.256947401  0.148348651  0.000000000
    -1.945923553  3.370438462  0.000000000     0.000000000  0.296697303  0.000000000
     0.000000000  0.000000000 18.855800629     0.000000000  0.000000000  0.053034078

  length of vectors
     3.891847107  3.891847107 18.855800629     0.296697303  0.296697303  0.053034078

  position of ions in fractional coordinates (direct lattice)
     0.333333343  0.666666686  0.417291977
     0.666666657  0.333333314  0.582708023
     0.333333343  0.666666686  0.554209091
     0.666666657  0.333333314  0.445790909

  ion indices of the primitive-cell ions
   primitive index   ion index
                 1           1
                 2           2
                 3           3
                 4           4

----------------------------------------------------------------------------------------

 
 
 KPOINTS: K-Spacing Value to Generate K-Mesh: 0.02

Automatic generation of k-mesh.
Space group operators:
 irot       det(A)        alpha          n_x          n_y          n_z        tau_x        tau_y        tau_z
    1     1.000000     0.000000     1.000000     0.000000     0.000000     0.000000     0.000000     0.000000
    2    -1.000000     0.000000     1.000000     0.000000     0.000000     0.000000     0.000000     0.000000
    3     1.000000   120.000000     0.000000     0.000000    -1.000000     0.000000     0.000000     0.000000
    4    -1.000000   120.000000     0.000000     0.000000    -1.000000     0.000000     0.000000     0.000000
    5     1.000000   120.000000     0.000000     0.000000     1.000000     0.000000     0.000000     0.000000
    6    -1.000000   120.000000     0.000000     0.000000     1.000000     0.000000     0.000000     0.000000
    7     1.000000   180.000000     1.000000    -0.000000     0.000000     0.000000     0.000000     0.000000
    8    -1.000000   180.000000     1.000000    -0.000000     0.000000     0.000000     0.000000     0.000000
    9     1.000000   180.000000     0.500000    -0.866025     0.000000     0.000000     0.000000     0.000000
   10    -1.000000   180.000000     0.500000    -0.866025     0.000000     0.000000     0.000000     0.000000
   11     1.000000   180.000000    -0.500000    -0.866025     0.000000     0.000000     0.000000     0.000000
   12    -1.000000   180.000000    -0.500000    -0.866025     0.000000     0.000000     0.000000     0.000000
 
 Subroutine IBZKPT returns following result:
 ===========================================
 
 Found     90 irreducible k-points:
 
 Following reciprocal coordinates:
            Coordinates               Weight
  0.027778  0.027778  0.000000      6.000000
  0.083333  0.027778  0.000000     12.000000
  0.138889  0.027778  0.000000     12.000000
  0.194444  0.027778  0.000000     12.000000
  0.250000  0.027778  0.000000     12.000000
  0.305556  0.027778  0.000000     12.000000
  0.361111  0.027778  0.000000     12.000000
  0.416667  0.027778  0.000000     12.000000
  0.472222  0.027778  0.000000     12.000000
 -0.472222  0.027778  0.000000     12.000000
 -0.416667  0.027778  0.000000     12.000000
 -0.361111  0.027778  0.000000     12.000000
 -0.305556  0.027778  0.000000     12.000000
 -0.250000  0.027778  0.000000     12.000000
 -0.194444  0.027778  0.000000     12.000000
 -0.138889  0.027778  0.000000     12.000000
 -0.083333  0.027778  0.000000     12.000000
 -0.027778  0.027778  0.000000      6.000000
  0.083333  0.083333  0.000000      6.000000
  0.138889  0.083333  0.000000     12.000000
  0.194444  0.083333  0.000000     12.000000
  0.250000  0.083333  0.000000     12.000000
  0.305556  0.083333  0.000000     12.000000
  0.361111  0.083333  0.000000     12.000000
  0.416667  0.083333  0.000000     12.000000
  0.472222  0.083333  0.000000     12.000000
 -0.472222  0.083333  0.000000     12.000000
 -0.416667  0.083333  0.000000     12.000000
 -0.361111  0.083333  0.000000     12.000000
 -0.305556  0.083333  0.000000     12.000000
 -0.250000  0.083333  0.000000     12.000000
 -0.194444  0.083333  0.000000     12.000000
 -0.138889  0.083333  0.000000     12.000000
 -0.083333  0.083333  0.000000      6.000000
  0.138889  0.138889  0.000000      6.000000
  0.194444  0.138889  0.000000     12.000000
  0.250000  0.138889  0.000000     12.000000
  0.305556  0.138889  0.000000     12.000000
  0.361111  0.138889  0.000000     12.000000
  0.416667  0.138889  0.000000     12.000000
  0.472222  0.138889  0.000000     12.000000
 -0.472222  0.138889  0.000000     12.000000
 -0.416667  0.138889  0.000000     12.000000
 -0.361111  0.138889  0.000000     12.000000
 -0.305556  0.138889  0.000000     12.000000
 -0.250000  0.138889  0.000000     12.000000
 -0.194444  0.138889  0.000000     12.000000
 -0.138889  0.138889  0.000000      6.000000
  0.194444  0.194444  0.000000      6.000000
  0.250000  0.194444  0.000000     12.000000
  0.305556  0.194444  0.000000     12.000000
  0.361111  0.194444  0.000000     12.000000
  0.416667  0.194444  0.000000     12.000000
  0.472222  0.194444  0.000000     12.000000
 -0.472222  0.194444  0.000000     12.000000
 -0.416667  0.194444  0.000000     12.000000
 -0.361111  0.194444  0.000000     12.000000
 -0.305556  0.194444  0.000000     12.000000
 -0.250000  0.194444  0.000000     12.000000
 -0.194444  0.194444  0.000000      6.000000
  0.250000  0.250000  0.000000      6.000000
  0.305556  0.250000  0.000000     12.000000
  0.361111  0.250000  0.000000     12.000000
  0.416667  0.250000  0.000000     12.000000
  0.472222  0.250000  0.000000     12.000000
 -0.472222  0.250000  0.000000     12.000000
 -0.416667  0.250000  0.000000     12.000000
 -0.361111  0.250000  0.000000     12.000000
 -0.305556  0.250000  0.000000     12.000000
 -0.250000  0.250000  0.000000      6.000000
  0.305556  0.305556  0.000000      6.000000
  0.361111  0.305556  0.000000     12.000000
  0.416667  0.305556  0.000000     12.000000
  0.472222  0.305556  0.000000     12.000000
 -0.472222  0.305556  0.000000     12.000000
 -0.416667  0.305556  0.000000     12.000000
 -0.361111  0.305556  0.000000     12.000000
 -0.305556  0.305556  0.000000      6.000000
  0.361111  0.361111  0.000000      6.000000
  0.416667  0.361111  0.000000     12.000000
  0.472222  0.361111  0.000000     12.000000
 -0.472222  0.361111  0.000000     12.000000
 -0.416667  0.361111  0.000000     12.000000
 -0.361111  0.361111  0.000000      6.000000
  0.416667  0.416667  0.000000      6.000000
  0.472222  0.416667  0.000000     12.000000
 -0.472222  0.416667  0.000000     12.000000
 -0.416667  0.416667  0.000000      6.000000
  0.472222  0.472222  0.000000      6.000000
 -0.472222  0.472222  0.000000      6.000000
 
 Following cartesian coordinates:
            Coordinates               Weight
  0.007137  0.012362  0.000000      6.000000
  0.021412  0.020604  0.000000     12.000000
  0.035687  0.028846  0.000000     12.000000
  0.049962  0.037087  0.000000     12.000000
  0.064237  0.045329  0.000000     12.000000
  0.078512  0.053570  0.000000     12.000000
  0.092787  0.061812  0.000000     12.000000
  0.107061  0.070054  0.000000     12.000000
  0.121336  0.078295  0.000000     12.000000
 -0.121336 -0.061812  0.000000     12.000000
 -0.107061 -0.053570  0.000000     12.000000
 -0.092787 -0.045329  0.000000     12.000000
 -0.078512 -0.037087  0.000000     12.000000
 -0.064237 -0.028846  0.000000     12.000000
 -0.049962 -0.020604  0.000000     12.000000
 -0.035687 -0.012362  0.000000     12.000000
 -0.021412 -0.004121  0.000000     12.000000
 -0.007137  0.004121  0.000000      6.000000
  0.021412  0.037087  0.000000      6.000000
  0.035687  0.045329  0.000000     12.000000
  0.049962  0.053570  0.000000     12.000000
  0.064237  0.061812  0.000000     12.000000
  0.078512  0.070054  0.000000     12.000000
  0.092787  0.078295  0.000000     12.000000
  0.107061  0.086537  0.000000     12.000000
  0.121336  0.094778  0.000000     12.000000
 -0.121336 -0.045329  0.000000     12.000000
 -0.107061 -0.037087  0.000000     12.000000
 -0.092787 -0.028846  0.000000     12.000000
 -0.078512 -0.020604  0.000000     12.000000
 -0.064237 -0.012362  0.000000     12.000000
 -0.049962 -0.004121  0.000000     12.000000
 -0.035687  0.004121  0.000000     12.000000
 -0.021412  0.012362  0.000000      6.000000
  0.035687  0.061812  0.000000      6.000000
  0.049962  0.070054  0.000000     12.000000
  0.064237  0.078295  0.000000     12.000000
  0.078512  0.086537  0.000000     12.000000
  0.092787  0.094778  0.000000     12.000000
  0.107061  0.103020  0.000000     12.000000
  0.121336  0.111261  0.000000     12.000000
 -0.121336 -0.028846  0.000000     12.000000
 -0.107061 -0.020604  0.000000     12.000000
 -0.092787 -0.012362  0.000000     12.000000
 -0.078512 -0.004121  0.000000     12.000000
 -0.064237  0.004121  0.000000     12.000000
 -0.049962  0.012362  0.000000     12.000000
 -0.035687  0.020604  0.000000      6.000000
  0.049962  0.086537  0.000000      6.000000
  0.064237  0.094778  0.000000     12.000000
  0.078512  0.103020  0.000000     12.000000
  0.092787  0.111261  0.000000     12.000000
  0.107061  0.119503  0.000000     12.000000
  0.121336  0.127745  0.000000     12.000000
 -0.121336 -0.012362  0.000000     12.000000
 -0.107061 -0.004121  0.000000     12.000000
 -0.092787  0.004121  0.000000     12.000000
 -0.078512  0.012362  0.000000     12.000000
 -0.064237  0.020604  0.000000     12.000000
 -0.049962  0.028846  0.000000      6.000000
  0.064237  0.111261  0.000000      6.000000
  0.078512  0.119503  0.000000     12.000000
  0.092787  0.127745  0.000000     12.000000
  0.107061  0.135986  0.000000     12.000000
  0.121336  0.144228  0.000000     12.000000
 -0.121336  0.004121  0.000000     12.000000
 -0.107061  0.012362  0.000000     12.000000
 -0.092787  0.020604  0.000000     12.000000
 -0.078512  0.028846  0.000000     12.000000
 -0.064237  0.037087  0.000000      6.000000
  0.078512  0.135986  0.000000      6.000000
  0.092787  0.144228  0.000000     12.000000
  0.107061  0.152469  0.000000     12.000000
  0.121336  0.160711  0.000000     12.000000
 -0.121336  0.020604  0.000000     12.000000
 -0.107061  0.028846  0.000000     12.000000
 -0.092787  0.037087  0.000000     12.000000
 -0.078512  0.045329  0.000000      6.000000
  0.092787  0.160711  0.000000      6.000000
  0.107061  0.168953  0.000000     12.000000
  0.121336  0.177194  0.000000     12.000000
 -0.121336  0.037087  0.000000     12.000000
 -0.107061  0.045329  0.000000     12.000000
 -0.092787  0.053570  0.000000      6.000000
  0.107061  0.185436  0.000000      6.000000
  0.121336  0.193677  0.000000     12.000000
 -0.121336  0.053570  0.000000     12.000000
 -0.107061  0.061812  0.000000      6.000000
  0.121336  0.210161  0.000000      6.000000
 -0.121336  0.070054  0.000000      6.000000
 


--------------------------------------------------------------------------------------------------------




 Dimension of arrays:
   k-points           NKPTS =     90   k-points in BZ     NKDIM =     90   number of bands    NBANDS=     32
   number of dos      NEDOS =    301   number of ions     NIONS =      4
   non local maximal  LDIM  =      6   non local SUM 2l+1 LMDIM =     18
   total plane-waves  NPLWV = 109760
   max r-space proj   IRMAX =      1   max aug-charges    IRDMAX= 112034
   dimension x,y,z NGX =    28 NGY =   28 NGZ =  140
   dimension x,y,z NGXF=    56 NGYF=   56 NGZF=  280
   support grid    NGXF=   112 NGYF=  112 NGZF=  560
   ions per type =               2   2
   NGX,Y,Z   is equivalent  to a cutoff of  11.96, 11.96, 12.34 a.u.
   NGXF,Y,Z  is equivalent  to a cutoff of  23.92, 23.92, 24.69 a.u.

 SYSTEM =  unknown system                          
 POSCAR =  S2Zn2                                   

 Startparameter for this run:
   NWRITE =      2    write-flag & timer
   PREC   = accura    normal or accurate (medium, high low for compatibility)
   ISTART =      0    job   : 0-new  1-cont  2-samecut
   ICHARG =      2    charge: 1-file 2-atom 10-const
   ISPIN  =      1    spin polarized calculation?
   LNONCOLLINEAR =      F non collinear calculations
   LSORBIT =      F    spin-orbit coupling
   INIWAV =      1    electr: 0-lowe 1-rand  2-diag
   LASPH  =      T    aspherical Exc in radial PAW
   METAGGA=      F    non-selfconsistent MetaGGA calc.

 Electronic Relaxation 1
   ENCUT  =  500.0 eV  36.75 Ry    6.06 a.u.   7.10  7.10 34.38*2*pi/ulx,y,z
   ENINI  =  500.0     initial cutoff
   ENAUG  =  575.9 eV  augmentation charge cutoff
   NELM   =     60;   NELMIN=  2; NELMDL=  0     # of ELM steps 
   EDIFF  = 0.1E-03   stopping-criterion for ELM
   LREAL  =      F    real-space projection
   NLSPLINE    = F    spline interpolate recip. space projectors
   LCOMPAT=      F    compatible to vasp.4.4
   GGA_COMPAT  = T    GGA compatible to vasp.4.4-vasp.4.6
   LMAXPAW     = -100 max onsite density
   LMAXMIX     =    2 max onsite mixed and CHGCAR
   VOSKOWN=      0    Vosko Wilk Nusair interpolation
   ROPT   =    0.00000   0.00000
 Ionic relaxation
   EDIFFG = -.1E-01   stopping-criterion for IOM
   NSW    =    300    number of steps for IOM
   NBLOCK =      1;   KBLOCK =    300    inner block; outer block 
   IBRION =      2    ionic relax: 0-MD 1-quasi-New 2-CG
   NFREE  =      1    steps in history (QN), initial steepest desc. (CG)
   ISIF   =      3    stress and relaxation
   IWAVPR =     11    prediction:  0-non 1-charg 2-wave 3-comb
   ISYM   =      2    0-nonsym 1-usesym 2-fastsym
   LCORR  =      T    Harris-Foulkes like correction to forces

   POTIM  = 0.5000    time-step for ionic-motion
   TEIN   =    0.0    initial temperature
   TEBEG  =    0.0;   TEEND  =   0.0 temperature during run
   SMASS  =  -3.00    Nose mass-parameter (am)
   estimated Nose-frequenzy (Omega)   =  0.10E-29 period in steps = 0.13E+47 mass=  -0.346E-27a.u.
   SCALEE = 1.0000    scale energy and forces
   NPACO  =    256;   APACO  = 16.0  distance and # of slots for P.C.
   PSTRESS=    0.0 pullay stress

  Mass of Ions in am
   POMASS =  32.07 65.39
  Ionic Valenz
   ZVAL   =   6.00 12.00
  Atomic Wigner-Seitz radii
   RWIGS  =  -1.00 -1.00
  virtual crystal weights 
   VCA    =   1.00  1.00
   NELECT =      36.0000    total number of electrons
   NUPDOWN=      -1.0000    fix difference up-down

 DOS related values:
   EMIN   =  10.00;   EMAX   =-10.00  energy-range for DOS
   EFERMI =   0.00
   ISMEAR =     0;   SIGMA  =   0.05  broadening in eV -4-tet -1-fermi 0-gaus

 Electronic relaxation 2 (details)
   IALGO  =     38    algorithm
   LDIAG  =      T    sub-space diagonalisation (order eigenvalues)
   LSUBROT=      F    optimize rotation matrix (better conditioning)
   TURBO    =      0    0=normal 1=particle mesh
   IRESTART =      0    0=no restart 2=restart with 2 vectors
   NREBOOT  =      0    no. of reboots
   NMIN     =      0    reboot dimension
   EREF     =   0.00    reference energy to select bands
   IMIX   =      4    mixing-type and parameters
     AMIX     =   0.40;   BMIX     =  1.00
     AMIX_MAG =   1.60;   BMIX_MAG =  1.00
     AMIN     =   0.10
     WC   =   100.;   INIMIX=   1;  MIXPRE=   1;  MAXMIX= -45

 Intra band minimization:
   WEIMIN = 0.0010     energy-eigenvalue tresh-hold
   EBREAK =  0.78E-06  absolut break condition
   DEPER  =   0.30     relativ break condition  

   TIME   =   0.40     timestep for ELM

  volume/ion in A,a.u.               =      61.83       417.28
  Fermi-wavevector in a.u.,A,eV,Ry     =   0.861152  1.627342 10.089852  0.741583
  Thomas-Fermi vector in A             =   1.978763
 
 Write flags
   LWAVE        =      T    write WAVECAR
   LDOWNSAMPLE  =      F    k-point downsampling of WAVECAR
   LCHARG       =      T    write CHGCAR
   LVTOT        =      F    write LOCPOT, total local potential
   LVHAR        =      F    write LOCPOT, Hartree potential only
   LELF         =      F    write electronic localiz. function (ELF)
   LORBIT       =      0    0 simple, 1 ext, 2 COOP (PROOUT), +10 PAW based schemes


 Dipole corrections
   LMONO  =      F    monopole corrections only (constant potential shift)
   LDIPOL =      F    correct potential (dipole corrections)
   IDIPOL =      0    1-x, 2-y, 3-z, 4-all directions 
   EPSILON=  1.0000000 bulk dielectric constant

 Exchange correlation treatment:
   GGA     =    --    GGA type
   LEXCH   =     8    internal setting for exchange type
   VOSKOWN=      0    Vosko Wilk Nusair interpolation
   LHFCALC =     F    Hartree Fock is set to
   LHFONE  =     F    Hartree Fock one center treatment
   AEXX    =    0.0000 exact exchange contribution

 Linear response parameters
   LEPSILON=     F    determine dielectric tensor
   LRPA    =     F    only Hartree local field effects (RPA)
   LNABLA  =     F    use nabla operator in PAW spheres
   LVEL    =     F    velocity operator in full k-point grid
   LINTERFAST=   F  fast interpolation
   KINTER  =     0    interpolate to denser k-point grid
   CSHIFT  =0.1000    complex shift for real part using Kramers Kronig
   OMEGAMAX=  -1.0    maximum frequency
   DEG_THRESHOLD= 0.2000000E-02 threshold for treating states as degnerate
   RTIME   =   -0.100 relaxation time in fs
  (WPLASMAI=    0.000 imaginary part of plasma frequency in eV, 0.658/RTIME)
   DFIELD  = 0.0000000 0.0000000 0.0000000 field for delta impulse in time
 
 Orbital magnetization related:
   ORBITALMAG=     F  switch on orbital magnetization
   LCHIMAG   =     F  perturbation theory with respect to B field
   DQ        =  0.001000  dq finite difference perturbation B field
   LLRAUG    =     F  two centre corrections for induced B field



--------------------------------------------------------------------------------------------------------


 conjugate gradient relaxation of ions
 charge density and potential will be updated during run
 non-spin polarized calculation
 Variant of blocked Davidson
 Davidson routine will perform the subspace rotation
 perform sub-space diagonalisation
    after iterative eigenvector-optimisation
 modified Broyden-mixing scheme, WC =      100.0
 initial mixing is a Kerker type mixing with AMIX =  0.4000 and BMIX =      1.0000
 Hartree-type preconditioning will be used
 using additional bands           14
 reciprocal scheme for non local part
 use partial core corrections
 calculate Harris-corrections to forces 
   (improved forces if not selfconsistent)
 use gradient corrections 
 use of overlap-Matrix (Vanderbilt PP)
 Gauss-broadening in eV      SIGMA  =   0.05


--------------------------------------------------------------------------------------------------------


  energy-cutoff  :      500.00
  volume of cell :      247.34
      direct lattice vectors                 reciprocal lattice vectors
     3.891847107  0.000000000  0.000000000     0.256947401  0.148348651  0.000000000
    -1.945923553  3.370438462  0.000000000     0.000000000  0.296697303  0.000000000
     0.000000000  0.000000000 18.855800629     0.000000000  0.000000000  0.053034078

  length of vectors
     3.891847107  3.891847107 18.855800629     0.296697303  0.296697303  0.053034078


 
 k-points in units of 2pi/SCALE and weight: K-Spacing Value to Generate K-Mesh: 0.02
   0.00713743  0.01236239  0.00000000       0.006
   0.02141228  0.02060398  0.00000000       0.012
   0.03568714  0.02884557  0.00000000       0.012
   0.04996199  0.03708716  0.00000000       0.012
   0.06423685  0.04532875  0.00000000       0.012
   0.07851171  0.05357035  0.00000000       0.012
   0.09278656  0.06181194  0.00000000       0.012
   0.10706142  0.07005353  0.00000000       0.012
   0.12133627  0.07829512  0.00000000       0.012
  -0.12133627 -0.06181194  0.00000000       0.012
  -0.10706142 -0.05357035  0.00000000       0.012
  -0.09278656 -0.04532875  0.00000000       0.012
  -0.07851171 -0.03708716  0.00000000       0.012
  -0.06423685 -0.02884557  0.00000000       0.012
  -0.04996199 -0.02060398  0.00000000       0.012
  -0.03568714 -0.01236239  0.00000000       0.012
  -0.02141228 -0.00412080  0.00000000       0.012
  -0.00713743  0.00412080  0.00000000       0.006
   0.02141228  0.03708716  0.00000000       0.006
   0.03568714  0.04532875  0.00000000       0.012
   0.04996199  0.05357035  0.00000000       0.012
   0.06423685  0.06181194  0.00000000       0.012
   0.07851171  0.07005353  0.00000000       0.012
   0.09278656  0.07829512  0.00000000       0.012
   0.10706142  0.08653671  0.00000000       0.012
   0.12133627  0.09477830  0.00000000       0.012
  -0.12133627 -0.04532875  0.00000000       0.012
  -0.10706142 -0.03708716  0.00000000       0.012
  -0.09278656 -0.02884557  0.00000000       0.012
  -0.07851171 -0.02060398  0.00000000       0.012
  -0.06423685 -0.01236239  0.00000000       0.012
  -0.04996199 -0.00412080  0.00000000       0.012
  -0.03568714  0.00412080  0.00000000       0.012
  -0.02141228  0.01236239  0.00000000       0.006
   0.03568714  0.06181194  0.00000000       0.006
   0.04996199  0.07005353  0.00000000       0.012
   0.06423685  0.07829512  0.00000000       0.012
   0.07851171  0.08653671  0.00000000       0.012
   0.09278656  0.09477830  0.00000000       0.012
   0.10706142  0.10301990  0.00000000       0.012
   0.12133627  0.11126149  0.00000000       0.012
  -0.12133627 -0.02884557  0.00000000       0.012
  -0.10706142 -0.02060398  0.00000000       0.012
  -0.09278656 -0.01236239  0.00000000       0.012
  -0.07851171 -0.00412080  0.00000000       0.012
  -0.06423685  0.00412080  0.00000000       0.012
  -0.04996199  0.01236239  0.00000000       0.012
  -0.03568714  0.02060398  0.00000000       0.006
   0.04996199  0.08653671  0.00000000       0.006
   0.06423685  0.09477830  0.00000000       0.012
   0.07851171  0.10301990  0.00000000       0.012
   0.09278656  0.11126149  0.00000000       0.012
   0.10706142  0.11950308  0.00000000       0.012
   0.12133627  0.12774467  0.00000000       0.012
  -0.12133627 -0.01236239  0.00000000       0.012
  -0.10706142 -0.00412080  0.00000000       0.012
  -0.09278656  0.00412080  0.00000000       0.012
  -0.07851171  0.01236239  0.00000000       0.012
  -0.06423685  0.02060398  0.00000000       0.012
  -0.04996199  0.02884557  0.00000000       0.006
   0.06423685  0.11126149  0.00000000       0.006
   0.07851171  0.11950308  0.00000000       0.012
   0.09278656  0.12774467  0.00000000       0.012
   0.10706142  0.13598626  0.00000000       0.012
   0.12133627  0.14422786  0.00000000       0.012
  -0.12133627  0.00412080  0.00000000       0.012
  -0.10706142  0.01236239  0.00000000       0.012
  -0.09278656  0.02060398  0.00000000       0.012
  -0.07851171  0.02884557  0.00000000       0.012
  -0.06423685  0.03708716  0.00000000       0.006
   0.07851171  0.13598626  0.00000000       0.006
   0.09278656  0.14422786  0.00000000       0.012
   0.10706142  0.15246945  0.00000000       0.012
   0.12133627  0.16071104  0.00000000       0.012
  -0.12133627  0.02060398  0.00000000       0.012
  -0.10706142  0.02884557  0.00000000       0.012
  -0.09278656  0.03708716  0.00000000       0.012
  -0.07851171  0.04532875  0.00000000       0.006
   0.09278656  0.16071104  0.00000000       0.006
   0.10706142  0.16895263  0.00000000       0.012
   0.12133627  0.17719422  0.00000000       0.012
  -0.12133627  0.03708716  0.00000000       0.012
  -0.10706142  0.04532875  0.00000000       0.012
  -0.09278656  0.05357035  0.00000000       0.006
   0.10706142  0.18543581  0.00000000       0.006
   0.12133627  0.19367741  0.00000000       0.012
  -0.12133627  0.05357035  0.00000000       0.012
  -0.10706142  0.06181194  0.00000000       0.006
   0.12133627  0.21016059  0.00000000       0.006
  -0.12133627  0.07005353  0.00000000       0.006
 
 k-points in reciprocal lattice and weights: K-Spacing Value to Generate K-Mesh: 0.02
   0.02777778  0.02777778  0.00000000       0.006
   0.08333333  0.02777778  0.00000000       0.012
   0.13888889  0.02777778  0.00000000       0.012
   0.19444444  0.02777778  0.00000000       0.012
   0.25000000  0.02777778  0.00000000       0.012
   0.30555556  0.02777778  0.00000000       0.012
   0.36111111  0.02777778  0.00000000       0.012
   0.41666667  0.02777778  0.00000000       0.012
   0.47222222  0.02777778  0.00000000       0.012
  -0.47222222  0.02777778  0.00000000       0.012
  -0.41666667  0.02777778  0.00000000       0.012
  -0.36111111  0.02777778  0.00000000       0.012
  -0.30555556  0.02777778  0.00000000       0.012
  -0.25000000  0.02777778  0.00000000       0.012
  -0.19444444  0.02777778  0.00000000       0.012
  -0.13888889  0.02777778  0.00000000       0.012
  -0.08333333  0.02777778  0.00000000       0.012
  -0.02777778  0.02777778  0.00000000       0.006
   0.08333333  0.08333333  0.00000000       0.006
   0.13888889  0.08333333  0.00000000       0.012
   0.19444444  0.08333333  0.00000000       0.012
   0.25000000  0.08333333  0.00000000       0.012
   0.30555556  0.08333333  0.00000000       0.012
   0.36111111  0.08333333  0.00000000       0.012
   0.41666667  0.08333333  0.00000000       0.012
   0.47222222  0.08333333  0.00000000       0.012
  -0.47222222  0.08333333  0.00000000       0.012
  -0.41666667  0.08333333  0.00000000       0.012
  -0.36111111  0.08333333  0.00000000       0.012
  -0.30555556  0.08333333  0.00000000       0.012
  -0.25000000  0.08333333  0.00000000       0.012
  -0.19444444  0.08333333  0.00000000       0.012
  -0.13888889  0.08333333  0.00000000       0.012
  -0.08333333  0.08333333  0.00000000       0.006
   0.13888889  0.13888889  0.00000000       0.006
   0.19444444  0.13888889  0.00000000       0.012
   0.25000000  0.13888889  0.00000000       0.012
   0.30555556  0.13888889  0.00000000       0.012
   0.36111111  0.13888889  0.00000000       0.012
   0.41666667  0.13888889  0.00000000       0.012
   0.47222222  0.13888889  0.00000000       0.012
  -0.47222222  0.13888889  0.00000000       0.012
  -0.41666667  0.13888889  0.00000000       0.012
  -0.36111111  0.13888889  0.00000000       0.012
  -0.30555556  0.13888889  0.00000000       0.012
  -0.25000000  0.13888889  0.00000000       0.012
  -0.19444444  0.13888889  0.00000000       0.012
  -0.13888889  0.13888889  0.00000000       0.006
   0.19444444  0.19444444  0.00000000       0.006
   0.25000000  0.19444444  0.00000000       0.012
   0.30555556  0.19444444  0.00000000       0.012
   0.36111111  0.19444444  0.00000000       0.012
   0.41666667  0.19444444  0.00000000       0.012
   0.47222222  0.19444444  0.00000000       0.012
  -0.47222222  0.19444444  0.00000000       0.012
  -0.41666667  0.19444444  0.00000000       0.012
  -0.36111111  0.19444444  0.00000000       0.012
  -0.30555556  0.19444444  0.00000000       0.012
  -0.25000000  0.19444444  0.00000000       0.012
  -0.19444444  0.19444444  0.00000000       0.006
   0.25000000  0.25000000  0.00000000       0.006
   0.30555556  0.25000000  0.00000000       0.012
   0.36111111  0.25000000  0.00000000       0.012
   0.41666667  0.25000000  0.00000000       0.012
   0.47222222  0.25000000  0.00000000       0.012
  -0.47222222  0.25000000  0.00000000       0.012
  -0.41666667  0.25000000  0.00000000       0.012
  -0.36111111  0.25000000  0.00000000       0.012
  -0.30555556  0.25000000  0.00000000       0.012
  -0.25000000  0.25000000  0.00000000       0.006
   0.30555556  0.30555556  0.00000000       0.006
   0.36111111  0.30555556  0.00000000       0.012
   0.41666667  0.30555556  0.00000000       0.012
   0.47222222  0.30555556  0.00000000       0.012
  -0.47222222  0.30555556  0.00000000       0.012
  -0.41666667  0.30555556  0.00000000       0.012
  -0.36111111  0.30555556  0.00000000       0.012
  -0.30555556  0.30555556  0.00000000       0.006
   0.36111111  0.36111111  0.00000000       0.006
   0.41666667  0.36111111  0.00000000       0.012
   0.47222222  0.36111111  0.00000000       0.012
  -0.47222222  0.36111111  0.00000000       0.012
  -0.41666667  0.36111111  0.00000000       0.012
  -0.36111111  0.36111111  0.00000000       0.006
   0.41666667  0.41666667  0.00000000       0.006
   0.47222222  0.41666667  0.00000000       0.012
  -0.47222222  0.41666667  0.00000000       0.012
  -0.41666667  0.41666667  0.00000000       0.006
   0.47222222  0.47222222  0.00000000       0.006
  -0.47222222  0.47222222  0.00000000       0.006
 
 position of ions in fractional coordinates (direct lattice) 
   0.33333334  0.66666669  0.41729198
   0.66666666  0.33333331  0.58270802
   0.33333334  0.66666669  0.55420909
   0.66666666  0.33333331  0.44579091
 
 position of ions in cartesian coordinates  (Angst):
   0.00000000  2.24695904  7.86837432
   1.94592355  1.12347942 10.98742631
   0.00000000  2.24695904 10.45005613
   1.94592355  1.12347942  8.40574450
 


--------------------------------------------------------------------------------------------------------


 k-point   1 :   0.0278 0.0278 0.0000  plane waves:    6239
 k-point   2 :   0.0833 0.0278 0.0000  plane waves:    6232
 k-point   3 :   0.1389 0.0278 0.0000  plane waves:    6247
 k-point   4 :   0.1944 0.0278 0.0000  plane waves:    6278
 k-point   5 :   0.2500 0.0278 0.0000  plane waves:    6273
 k-point   6 :   0.3056 0.0278 0.0000  plane waves:    6274
 k-point   7 :   0.3611 0.0278 0.0000  plane waves:    6284
 k-point   8 :   0.4167 0.0278 0.0000  plane waves:    6284
 k-point   9 :   0.4722 0.0278 0.0000  plane waves:    6296
 k-point  10 :  -0.4722 0.0278 0.0000  plane waves:    6290
 k-point  11 :  -0.4167 0.0278 0.0000  plane waves:    6276
 k-point  12 :  -0.3611 0.0278 0.0000  plane waves:    6280
 k-point  13 :  -0.3056 0.0278 0.0000  plane waves:    6267
 k-point  14 :  -0.2500 0.0278 0.0000  plane waves:    6274
 k-point  15 :  -0.1944 0.0278 0.0000  plane waves:    6264
 k-point  16 :  -0.1389 0.0278 0.0000  plane waves:    6248
 k-point  17 :  -0.0833 0.0278 0.0000  plane waves:    6231
 k-point  18 :  -0.0278 0.0278 0.0000  plane waves:    6245
 k-point  19 :   0.0833 0.0833 0.0000  plane waves:    6223
 k-point  20 :   0.1389 0.0833 0.0000  plane waves:    6246
 k-point  21 :   0.1944 0.0833 0.0000  plane waves:    6261
 k-point  22 :   0.2500 0.0833 0.0000  plane waves:    6277
 k-point  23 :   0.3056 0.0833 0.0000  plane waves:    6281
 k-point  24 :   0.3611 0.0833 0.0000  plane waves:    6274
 k-point  25 :   0.4167 0.0833 0.0000  plane waves:    6290
 k-point  26 :   0.4722 0.0833 0.0000  plane waves:    6298
 k-point  27 :  -0.4722 0.0833 0.0000  plane waves:    6282
 k-point  28 :  -0.4167 0.0833 0.0000  plane waves:    6277
 k-point  29 :  -0.3611 0.0833 0.0000  plane waves:    6277
 k-point  30 :  -0.3056 0.0833 0.0000  plane waves:    6271
 k-point  31 :  -0.2500 0.0833 0.0000  plane waves:    6260
 k-point  32 :  -0.1944 0.0833 0.0000  plane waves:    6239
 k-point  33 :  -0.1389 0.0833 0.0000  plane waves:    6231
 k-point  34 :  -0.0833 0.0833 0.0000  plane waves:    6227
 k-point  35 :   0.1389 0.1389 0.0000  plane waves:    6261
 k-point  36 :   0.1944 0.1389 0.0000  plane waves:    6268
 k-point  37 :   0.2500 0.1389 0.0000  plane waves:    6284
 k-point  38 :   0.3056 0.1389 0.0000  plane waves:    6292
 k-point  39 :   0.3611 0.1389 0.0000  plane waves:    6291
 k-point  40 :   0.4167 0.1389 0.0000  plane waves:    6307
 k-point  41 :   0.4722 0.1389 0.0000  plane waves:    6288
 k-point  42 :  -0.4722 0.1389 0.0000  plane waves:    6291
 k-point  43 :  -0.4167 0.1389 0.0000  plane waves:    6280
 k-point  44 :  -0.3611 0.1389 0.0000  plane waves:    6276
 k-point  45 :  -0.3056 0.1389 0.0000  plane waves:    6267
 k-point  46 :  -0.2500 0.1389 0.0000  plane waves:    6251
 k-point  47 :  -0.1944 0.1389 0.0000  plane waves:    6244
 k-point  48 :  -0.1389 0.1389 0.0000  plane waves:    6243
 k-point  49 :   0.1944 0.1944 0.0000  plane waves:    6279
 k-point  50 :   0.2500 0.1944 0.0000  plane waves:    6288
 k-point  51 :   0.3056 0.1944 0.0000  plane waves:    6293
 k-point  52 :   0.3611 0.1944 0.0000  plane waves:    6314
 k-point  53 :   0.4167 0.1944 0.0000  plane waves:    6303
 k-point  54 :   0.4722 0.1944 0.0000  plane waves:    6297
 k-point  55 :  -0.4722 0.1944 0.0000  plane waves:    6294
 k-point  56 :  -0.4167 0.1944 0.0000  plane waves:    6284
 k-point  57 :  -0.3611 0.1944 0.0000  plane waves:    6271
 k-point  58 :  -0.3056 0.1944 0.0000  plane waves:    6266
 k-point  59 :  -0.2500 0.1944 0.0000  plane waves:    6268
 k-point  60 :  -0.1944 0.1944 0.0000  plane waves:    6272
 k-point  61 :   0.2500 0.2500 0.0000  plane waves:    6293
 k-point  62 :   0.3056 0.2500 0.0000  plane waves:    6312
 k-point  63 :   0.3611 0.2500 0.0000  plane waves:    6313
 k-point  64 :   0.4167 0.2500 0.0000  plane waves:    6315
 k-point  65 :   0.4722 0.2500 0.0000  plane waves:    6304
 k-point  66 :  -0.4722 0.2500 0.0000  plane waves:    6286
 k-point  67 :  -0.4167 0.2500 0.0000  plane waves:    6292
 k-point  68 :  -0.3611 0.2500 0.0000  plane waves:    6270
 k-point  69 :  -0.3056 0.2500 0.0000  plane waves:    6269
 k-point  70 :  -0.2500 0.2500 0.0000  plane waves:    6286
 k-point  71 :   0.3056 0.3056 0.0000  plane waves:    6323
 k-point  72 :   0.3611 0.3056 0.0000  plane waves:    6321
 k-point  73 :   0.4167 0.3056 0.0000  plane waves:    6325
 k-point  74 :   0.4722 0.3056 0.0000  plane waves:    6303
 k-point  75 :  -0.4722 0.3056 0.0000  plane waves:    6296
 k-point  76 :  -0.4167 0.3056 0.0000  plane waves:    6288
 k-point  77 :  -0.3611 0.3056 0.0000  plane waves:    6285
 k-point  78 :  -0.3056 0.3056 0.0000  plane waves:    6266
 k-point  79 :   0.3611 0.3611 0.0000  plane waves:    6319
 k-point  80 :   0.4167 0.3611 0.0000  plane waves:    6313
 k-point  81 :   0.4722 0.3611 0.0000  plane waves:    6304
 k-point  82 :  -0.4722 0.3611 0.0000  plane waves:    6285
 k-point  83 :  -0.4167 0.3611 0.0000  plane waves:    6284
 k-point  84 :  -0.3611 0.3611 0.0000  plane waves:    6280
 k-point  85 :   0.4167 0.4167 0.0000  plane waves:    6299
 k-point  86 :   0.4722 0.4167 0.0000  plane waves:    6295
 k-point  87 :  -0.4722 0.4167 0.0000  plane waves:    6292
 k-point  88 :  -0.4167 0.4167 0.0000  plane waves:    6278
 k-point  89 :   0.4722 0.4722 0.0000  plane waves:    6296
 k-point  90 :  -0.4722 0.4722 0.0000  plane waves:    6298

 maximum and minimum number of plane-waves per node :      6325     6223

 maximum number of plane-waves:      6325
 maximum index in each direction: 
   IXMAX=    7   IYMAX=    7   IZMAX=   34
   IXMIN=   -7   IYMIN=   -7   IZMIN=  -34


 serial   3D FFT for wavefunctions
 parallel 3D FFT for charge:
    minimum data exchange during FFTs selected (reduces bandwidth)


 total amount of memory used by VASP MPI-rank0   214945. kBytes
=======================================================================

   base      :      30000. kBytes
   nonl-proj :     164634. kBytes
   fftplans  :       4865. kBytes
   grid      :       6168. kBytes
   one-center:         62. kBytes
   wavefun   :       9216. kBytes
 
     INWAV:  cpu time    0.0000: real time    0.0000
 Broyden mixing: mesh for mixing (old mesh)
   NGX = 15   NGY = 15   NGZ = 69
  (NGX  = 56   NGY  = 56   NGZ  =280)
  gives a total of  15525 points

 initial charge density was supplied:
 charge density of overlapping atoms calculated
 number of electron      36.0000000 magnetization 
 keeping initial charge density in first step


--------------------------------------------------------------------------------------------------------


 Maximum index for augmentation-charges         3667 (set IRDMAX)


--------------------------------------------------------------------------------------------------------


 First call to EWALD:  gamma=   0.282
 Maximum number of real-space cells 5x 5x 1
 Maximum number of reciprocal cells 2x 2x 7

    FEWALD:  cpu time    0.0022: real time    0.0027


--------------------------------------- Iteration      1(   1)  ---------------------------------------


    POTLOK:  cpu time    0.0289: real time    0.0318
    SETDIJ:  cpu time    0.1286: real time    0.1290
     EDDAV:  cpu time    2.3289: real time    2.3346
       DOS:  cpu time    0.0016: real time    0.0017
    --------------------------------------------
      LOOP:  cpu time    2.4880: real time    2.4971

 eigenvalue-minimisations  :  5760
 total energy-change (2. order) : 0.1206441E+03  (-0.1620800E+04)
 number of electron      36.0000000 magnetization 
 augmentation part       36.0000000 magnetization 

 Free energy of the ion-electron system (eV)
  ---------------------------------------------------
  alpha Z        PSCENC =        45.71916632
  Ewald energy   TEWEN  =      5641.73008292
  -Hartree energ DENC   =     -9232.32754655
  -exchange      EXHF   =         0.00000000
  -V(xc)+E(xc)   XCENC  =       138.44756235
  PAW double counting   =      3345.42656771    -3694.17617221
  entropy T*S    EENTRO =        -0.00379631
  eigenvalues    EBANDS =      -175.47698187
  atomic energy  EATOM  =      4051.30523217
  Solvation  Ediel_sol  =         0.00000000
  ---------------------------------------------------
  free energy    TOTEN  =       120.64411454 eV

  energy without entropy =      120.64791085  energy(sigma->0) =      120.64601270


--------------------------------------------------------------------------------------------------------




--------------------------------------- Iteration      1(   2)  ---------------------------------------


     EDDAV:  cpu time    3.0391: real time    3.0464
       DOS:  cpu time    0.0003: real time    0.0003
    --------------------------------------------
      LOOP:  cpu time    3.0394: real time    3.0467

 eigenvalue-minimisations  :  7648
 total energy-change (2. order) :-0.1275934E+03  (-0.1244414E+03)
 number of electron      36.0000000 magnetization 
 augmentation part       36.0000000 magnetization 

 Free energy of the ion-electron system (eV)
  ---------------------------------------------------
  alpha Z        PSCENC =        45.71916632
  Ewald energy   TEWEN  =      5641.73008292
  -Hartree energ DENC   =     -9232.32754655
  -exchange      EXHF   =         0.00000000
  -V(xc)+E(xc)   XCENC  =       138.44756235
  PAW double counting   =      3345.42656771    -3694.17617221
  entropy T*S    EENTRO =        -0.00000000
  eigenvalues    EBANDS =      -303.07419936
  atomic energy  EATOM  =      4051.30523217
  Solvation  Ediel_sol  =         0.00000000
  ---------------------------------------------------
  free energy    TOTEN  =        -6.94930664 eV

  energy without entropy =       -6.94930664  energy(sigma->0) =       -6.94930664


--------------------------------------------------------------------------------------------------------




--------------------------------------- Iteration      1(   3)  ---------------------------------------


     EDDAV:  cpu time    3.1531: real time    3.1607
       DOS:  cpu time    0.0005: real time    0.0005
    --------------------------------------------
      LOOP:  cpu time    3.1536: real time    3.1612

 eigenvalue-minimisations  :  7904
 total energy-change (2. order) :-0.7115723E+01  (-0.7115723E+01)
 number of electron      36.0000000 magnetization 
 augmentation part       36.0000000 magnetization 

 Free energy of the ion-electron system (eV)
  ---------------------------------------------------
  alpha Z        PSCENC =        45.71916632
  Ewald energy   TEWEN  =      5641.73008292
  -Hartree energ DENC   =     -9232.32754655
  -exchange      EXHF   =         0.00000000
  -V(xc)+E(xc)   XCENC  =       138.44756235
  PAW double counting   =      3345.42656771    -3694.17617221
  entropy T*S    EENTRO =        -0.00000000
  eigenvalues    EBANDS =      -310.18992260
  atomic energy  EATOM  =      4051.30523217
  Solvation  Ediel_sol  =         0.00000000
  ---------------------------------------------------
  free energy    TOTEN  =       -14.06502988 eV

  energy without entropy =      -14.06502988  energy(sigma->0) =      -14.06502988


--------------------------------------------------------------------------------------------------------




--------------------------------------- Iteration      1(   4)  ---------------------------------------


     EDDAV:  cpu time    3.9076: real time    3.9170
       DOS:  cpu time    0.0004: real time    0.0004
    --------------------------------------------
      LOOP:  cpu time    3.9080: real time    3.9174

 eigenvalue-minimisations  :  9536
 total energy-change (2. order) :-0.4720199E-01  (-0.4720199E-01)
 number of electron      36.0000000 magnetization 
 augmentation part       36.0000000 magnetization 

 Free energy of the ion-electron system (eV)
  ---------------------------------------------------
  alpha Z        PSCENC =        45.71916632
  Ewald energy   TEWEN  =      5641.73008292
  -Hartree energ DENC   =     -9232.32754655
  -exchange      EXHF   =         0.00000000
  -V(xc)+E(xc)   XCENC  =       138.44756235
  PAW double counting   =      3345.42656771    -3694.17617221
  entropy T*S    EENTRO =        -0.00000000
  eigenvalues    EBANDS =      -310.23712459
  atomic energy  EATOM  =      4051.30523217
  Solvation  Ediel_sol  =         0.00000000
  ---------------------------------------------------
  free energy    TOTEN  =       -14.11223186 eV

  energy without entropy =      -14.11223186  energy(sigma->0) =      -14.11223186


--------------------------------------------------------------------------------------------------------




--------------------------------------- Iteration      1(   5)  ---------------------------------------


     EDDAV:  cpu time    3.2441: real time    3.2519
       DOS:  cpu time    0.0006: real time    0.0006
    CHARGE:  cpu time    0.1731: real time    0.1735
    MIXING:  cpu time    0.0019: real time    0.0021
    --------------------------------------------
      LOOP:  cpu time    3.4197: real time    3.4281

 eigenvalue-minimisations  :  8064
 total energy-change (2. order) :-0.1042084E-03  (-0.1042085E-03)
 number of electron      36.0000001 magnetization 
 augmentation part       14.2453056 magnetization 

 Broyden mixing:
  rms(total) = 0.10041E+01    rms(broyden)= 0.10041E+01
  rms(prec ) = 0.10385E+01
  weight for this iteration     100.00

 Free energy of the ion-electron system (eV)
  ---------------------------------------------------
  alpha Z        PSCENC =        45.71916632
  Ewald energy   TEWEN  =      5641.73008292
  -Hartree energ DENC   =     -9232.32754655
  -exchange      EXHF   =         0.00000000
  -V(xc)+E(xc)   XCENC  =       138.44756235
  PAW double counting   =      3345.42656771    -3694.17617221
  entropy T*S    EENTRO =        -0.00000000
  eigenvalues    EBANDS =      -310.23722879
  atomic energy  EATOM  =      4051.30523217
  Solvation  Ediel_sol  =         0.00000000
  ---------------------------------------------------
  free energy    TOTEN  =       -14.11233607 eV

  energy without entropy =      -14.11233607  energy(sigma->0) =      -14.11233607


--------------------------------------------------------------------------------------------------------




--------------------------------------- Iteration      1(   6)  ---------------------------------------


    POTLOK:  cpu time    0.0217: real time    0.0231
    SETDIJ:  cpu time    0.1130: real time    0.1133
     EDDAV:  cpu time    3.7693: real time    3.7784
       DOS:  cpu time    0.0005: real time    0.0005
    CHARGE:  cpu time    0.1796: real time    0.1800
    MIXING:  cpu time    0.0015: real time    0.0017
    --------------------------------------------
      LOOP:  cpu time    4.0857: real time    4.0970

 eigenvalue-minimisations  :  9344
 total energy-change (2. order) : 0.9054129E+00  (-0.4597465E+00)
 number of electron      36.0000001 magnetization 
 augmentation part       14.4895753 magnetization 

 Broyden mixing:
  rms(total) = 0.81491E+00    rms(broyden)= 0.81491E+00
  rms(prec ) = 0.81872E+00
  weight for this iteration     100.00

 eigenvalues of (default mixing * dielectric matrix)
  average eigenvalue GAMMA=   1.8134
  1.8134

 Free energy of the ion-electron system (eV)
  ---------------------------------------------------
  alpha Z        PSCENC =        45.71916632
  Ewald energy   TEWEN  =      5641.73008292
  -Hartree energ DENC   =     -9215.88727119
  -exchange      EXHF   =         0.00000000
  -V(xc)+E(xc)   XCENC  =       138.45595705
  PAW double counting   =      3602.34900354    -3946.01711631
  entropy T*S    EENTRO =        -0.00000000
  eigenvalues    EBANDS =      -330.86197766
  atomic energy  EATOM  =      4051.30523217
  Solvation  Ediel_sol  =         0.00000000
  ---------------------------------------------------
  free energy    TOTEN  =       -13.20692315 eV

  energy without entropy =      -13.20692315  energy(sigma->0) =      -13.20692315


--------------------------------------------------------------------------------------------------------




--------------------------------------- Iteration      1(   7)  ---------------------------------------


    POTLOK:  cpu time    0.0211: real time    0.0218
    SETDIJ:  cpu time    0.1139: real time    0.1142
     EDDAV:  cpu time    3.9701: real time    3.9797
       DOS:  cpu time    0.0004: real time    0.0004
    CHARGE:  cpu time    0.1736: real time    0.1741
    MIXING:  cpu time    0.0015: real time    0.0015
    --------------------------------------------
      LOOP:  cpu time    4.2807: real time    4.2917

 eigenvalue-minimisations  :  9824
 total energy-change (2. order) : 0.6007425E-01  (-0.5093752E-01)
 number of electron      36.0000001 magnetization 
 augmentation part       14.4346458 magnetization 

 Broyden mixing:
  rms(total) = 0.30649E+00    rms(broyden)= 0.30649E+00
  rms(prec ) = 0.30792E+00
  weight for this iteration     100.00

 eigenvalues of (default mixing * dielectric matrix)
  average eigenvalue GAMMA=   1.7187
  0.9386  2.4988

 Free energy of the ion-electron system (eV)
  ---------------------------------------------------
  alpha Z        PSCENC =        45.71916632
  Ewald energy   TEWEN  =      5641.73008292
  -Hartree energ DENC   =     -9219.44558717
  -exchange      EXHF   =         0.00000000
  -V(xc)+E(xc)   XCENC  =       138.91453476
  PAW double counting   =      4036.11967041    -4385.52499459
  entropy T*S    EENTRO =        -0.00000000
  eigenvalues    EBANDS =      -321.96495372
  atomic energy  EATOM  =      4051.30523217
  Solvation  Ediel_sol  =         0.00000000
  ---------------------------------------------------
  free energy    TOTEN  =       -13.14684891 eV

  energy without entropy =      -13.14684891  energy(sigma->0) =      -13.14684891


--------------------------------------------------------------------------------------------------------




--------------------------------------- Iteration      1(   8)  ---------------------------------------


    POTLOK:  cpu time    0.0201: real time    0.0211
    SETDIJ:  cpu time    0.1132: real time    0.1135
     EDDAV:  cpu time    3.1884: real time    3.1962
       DOS:  cpu time    0.0004: real time    0.0004
    CHARGE:  cpu time    0.1761: real time    0.1765
    MIXING:  cpu time    0.0011: real time    0.0011
    --------------------------------------------
      LOOP:  cpu time    3.4992: real time    3.5087

 eigenvalue-minimisations  :  7904
 total energy-change (2. order) : 0.1794608E-02  (-0.2668211E-02)
 number of electron      36.0000001 magnetization 
 augmentation part       14.4502457 magnetization 

 Broyden mixing:
  rms(total) = 0.34045E-01    rms(broyden)= 0.34045E-01
  rms(prec ) = 0.36000E-01
  weight for this iteration     100.00

 eigenvalues of (default mixing * dielectric matrix)
  average eigenvalue GAMMA=   1.5398
  2.4223  0.9201  1.2769

 Free energy of the ion-electron system (eV)
  ---------------------------------------------------
  alpha Z        PSCENC =        45.71916632
  Ewald energy   TEWEN  =      5641.73008292
  -Hartree energ DENC   =     -9216.80544522
  -exchange      EXHF   =         0.00000000
  -V(xc)+E(xc)   XCENC  =       138.90351868
  PAW double counting   =      4321.52104860    -4671.65550555
  entropy T*S    EENTRO =        -0.00000000
  eigenvalues    EBANDS =      -323.86315223
  atomic energy  EATOM  =      4051.30523217
  Solvation  Ediel_sol  =         0.00000000
  ---------------------------------------------------
  free energy    TOTEN  =       -13.14505430 eV

  energy without entropy =      -13.14505430  energy(sigma->0) =      -13.14505430


--------------------------------------------------------------------------------------------------------




--------------------------------------- Iteration      1(   9)  ---------------------------------------


    POTLOK:  cpu time    0.0204: real time    0.0204
    SETDIJ:  cpu time    0.1175: real time    0.1178
     EDDAV:  cpu time    3.7680: real time    3.7771
       DOS:  cpu time    0.0004: real time    0.0004
    CHARGE:  cpu time    0.1665: real time    0.1669
    MIXING:  cpu time    0.0020: real time    0.0020
    --------------------------------------------
      LOOP:  cpu time    4.0748: real time    4.0846

 eigenvalue-minimisations  :  9312
 total energy-change (2. order) : 0.1157446E-02  (-0.9893737E-03)
 number of electron      36.0000001 magnetization 
 augmentation part       14.4517733 magnetization 

 Broyden mixing:
  rms(total) = 0.11175E-01    rms(broyden)= 0.11175E-01
  rms(prec ) = 0.11606E-01
  weight for this iteration     100.00

 eigenvalues of (default mixing * dielectric matrix)
  average eigenvalue GAMMA=   1.7547
  2.4034  2.4034  0.9263  1.2858

 Free energy of the ion-electron system (eV)
  ---------------------------------------------------
  alpha Z        PSCENC =        45.71916632
  Ewald energy   TEWEN  =      5641.73008292
  -Hartree energ DENC   =     -9216.37306592
  -exchange      EXHF   =         0.00000000
  -V(xc)+E(xc)   XCENC  =       138.85656921
  PAW double counting   =      4328.93117882    -4678.96915207
  entropy T*S    EENTRO =        -0.00000000
  eigenvalues    EBANDS =      -324.34390831
  atomic energy  EATOM  =      4051.30523217
  Solvation  Ediel_sol  =         0.00000000
  ---------------------------------------------------
  free energy    TOTEN  =       -13.14389685 eV

  energy without entropy =      -13.14389685  energy(sigma->0) =      -13.14389685


--------------------------------------------------------------------------------------------------------




--------------------------------------- Iteration      1(  10)  ---------------------------------------


    POTLOK:  cpu time    0.0195: real time    0.0215
    SETDIJ:  cpu time    0.1161: real time    0.1163
     EDDAV:  cpu time    3.7137: real time    3.7226
       DOS:  cpu time    0.0004: real time    0.0004
    CHARGE:  cpu time    0.1519: real time    0.1523
    MIXING:  cpu time    0.0011: real time    0.0011
    --------------------------------------------
      LOOP:  cpu time    4.0026: real time    4.0142

 eigenvalue-minimisations  :  9568
 total energy-change (2. order) :-0.3396018E-03  (-0.1187611E-03)
 number of electron      36.0000001 magnetization 
 augmentation part       14.4501808 magnetization 

 Broyden mixing:
  rms(total) = 0.59680E-02    rms(broyden)= 0.59680E-02
  rms(prec ) = 0.62250E-02
  weight for this iteration     100.00

 eigenvalues of (default mixing * dielectric matrix)
  average eigenvalue GAMMA=   1.7034
  2.5850  2.5850  1.4819  0.9326  0.9326

 Free energy of the ion-electron system (eV)
  ---------------------------------------------------
  alpha Z        PSCENC =        45.71916632
  Ewald energy   TEWEN  =      5641.73008292
  -Hartree energ DENC   =     -9216.59836615
  -exchange      EXHF   =         0.00000000
  -V(xc)+E(xc)   XCENC  =       138.85637430
  PAW double counting   =      4314.12936283    -4664.21305154
  entropy T*S    EENTRO =        -0.00000000
  eigenvalues    EBANDS =      -324.07303730
  atomic energy  EATOM  =      4051.30523217
  Solvation  Ediel_sol  =         0.00000000
  ---------------------------------------------------
  free energy    TOTEN  =       -13.14423646 eV

  energy without entropy =      -13.14423646  energy(sigma->0) =      -13.14423646


--------------------------------------------------------------------------------------------------------




--------------------------------------- Iteration      1(  11)  ---------------------------------------


    POTLOK:  cpu time    0.0173: real time    0.0173
    SETDIJ:  cpu time    0.1103: real time    0.1105
     EDDAV:  cpu time    3.7121: real time    3.7210
       DOS:  cpu time    0.0004: real time    0.0004
    --------------------------------------------
      LOOP:  cpu time    3.8399: real time    3.8492

 eigenvalue-minimisations  : 10336
 total energy-change (2. order) :-0.1781116E-04  (-0.2068123E-04)
 number of electron      36.0000001 magnetization 
 augmentation part       14.4501808 magnetization 

 Free energy of the ion-electron system (eV)
  ---------------------------------------------------
  alpha Z        PSCENC =        45.71916632
  Ewald energy   TEWEN  =      5641.73008292
  -Hartree energ DENC   =     -9216.74686439
  -exchange      EXHF   =         0.00000000
  -V(xc)+E(xc)   XCENC  =       138.86184936
  PAW double counting   =      4310.55491577    -4660.64042867
  entropy T*S    EENTRO =        -0.00000000
  eigenvalues    EBANDS =      -323.92820775
  atomic energy  EATOM  =      4051.30523217
  Solvation  Ediel_sol  =         0.00000000
  ---------------------------------------------------
  free energy    TOTEN  =       -13.14425427 eV

  energy without entropy =      -13.14425427  energy(sigma->0) =      -13.14425427


--------------------------------------------------------------------------------------------------------




 average (electrostatic) potential at core
  the test charge radii are     0.9698  0.9521
  (the norm of the test charge is              1.0000)
       1 -94.0615       2 -94.0615       3 -41.9750       4 -41.9750
 
 
 
 E-fermi :  -3.4134     XC(G=0):  -3.7405     alpha+bet : -2.5704


 k-point     1 :       0.0278    0.0278    0.0000
  band No.  band energies     occupation 
      1     -16.4096      2.00000
      2     -15.7272      2.00000
      3     -10.0299      2.00000
      4     -10.0222      2.00000
      5      -9.9285      2.00000
      6      -9.9237      2.00000
      7      -9.5792      2.00000
      8      -9.5465      2.00000
      9      -9.4949      2.00000
     10      -9.3837      2.00000
     11      -9.2848      2.00000
     12      -9.2780      2.00000
     13      -7.4932      2.00000
     14      -4.5040      2.00000
     15      -4.3332      2.00000
     16      -4.0153      2.00000
     17      -3.8246      2.00000
     18      -3.7155      2.00000
     19      -0.8928      0.00000
     20      -0.7307      0.00000
     21       2.0438      0.00000
     22       2.0730      0.00000
     23       2.7636      0.00000
     24       2.9166      0.00000
     25       2.9278      0.00000
     26       3.1140      0.00000
     27       3.2189      0.00000
     28       3.6715      0.00000
     29       3.8901      0.00000
     30       5.6597      0.00000
     31       6.1297      0.00000
     32       7.6264      0.00000

 k-point     2 :       0.0833    0.0278    0.0000
  band No.  band energies     occupation 
      1     -16.3601      2.00000
      2     -15.6950      2.00000
      3     -10.0357      2.00000
      4     -10.0038      2.00000
      5      -9.9244      2.00000
      6      -9.9047      2.00000
      7      -9.6180      2.00000
      8      -9.5519      2.00000
      9      -9.4461      2.00000
     10      -9.3948      2.00000
     11      -9.3018      2.00000
     12      -9.2775      2.00000
     13      -7.4119      2.00000
     14      -4.9785      2.00000
     15      -4.4715      2.00000
     16      -4.1988      2.00000
     17      -3.9667      2.00000
     18      -3.8081      2.00000
     19      -0.5005      0.00000
     20      -0.3688      0.00000
     21       2.0243      0.00000
     22       2.1839      0.00000
     23       2.5418      0.00000
     24       2.9866      0.00000
     25       3.0395      0.00000
     26       3.2058      0.00000
     27       3.4292      0.00000
     28       3.6625      0.00000
     29       3.9976      0.00000
     30       5.7085      0.00000
     31       5.9289      0.00000
     32       7.5023      0.00000

 k-point     3 :       0.1389    0.0278    0.0000
  band No.  band energies     occupation 
      1     -16.2745      2.00000
      2     -15.6408      2.00000
      3     -10.0418      2.00000
      4      -9.9723      2.00000
      5      -9.9151      2.00000
      6      -9.8719      2.00000
      7      -9.6534      2.00000
      8      -9.5606      2.00000
      9      -9.4249      2.00000
     10      -9.3907      2.00000
     11      -9.3177      2.00000
     12      -9.2770      2.00000
     13      -7.2848      2.00000
     14      -5.5865      2.00000
     15      -4.7437      2.00000
     16      -4.6408      2.00000
     17      -3.9677      2.00000
     18      -3.9362      2.00000
     19      -0.0521      0.00000
     20       0.0856      0.00000
     21       1.9144      0.00000
     22       2.3741      0.00000
     23       2.3976      0.00000
     24       3.0177      0.00000
     25       3.2315      0.00000
     26       3.5212      0.00000
     27       3.6303      0.00000
     28       3.8473      0.00000
     29       4.1242      0.00000
     30       5.6280      0.00000
     31       5.8328      0.00000
     32       7.3750      0.00000

 k-point     4 :       0.1944    0.0278    0.0000
  band No.  band energies     occupation 
      1     -16.1588      2.00000
      2     -15.5712      2.00000
      3     -10.0417      2.00000
      4      -9.9304      2.00000
      5      -9.8976      2.00000
      6      -9.8284      2.00000
      7      -9.6829      2.00000
      8      -9.5715      2.00000
      9      -9.4659      2.00000
     10      -9.3429      2.00000
     11      -9.3217      2.00000
     12      -9.2766      2.00000
     13      -7.1498      2.00000
     14      -6.2243      2.00000
     15      -5.2256      2.00000
     16      -4.9169      2.00000
     17      -4.1389      2.00000
     18      -3.9479      2.00000
     19       0.2151      0.00000
     20       0.4819      0.00000
     21       1.7187      0.00000
     22       2.5321      0.00000
     23       2.6246      0.00000
     24       3.1481      0.00000
     25       3.4889      0.00000
     26       3.6013      0.00000
     27       3.9274      0.00000
     28       4.2457      0.00000
     29       4.4570      0.00000
     30       5.4825      0.00000
     31       5.9947      0.00000
     32       7.3458      0.00000

 k-point     5 :       0.2500    0.0278    0.0000
  band No.  band energies     occupation 
      1     -16.0221      2.00000
      2     -15.4958      2.00000
      3     -10.0282      2.00000
      4      -9.8822      2.00000
      5      -9.8682      2.00000
      6      -9.7789      2.00000
      7      -9.7062      2.00000
      8      -9.5830      2.00000
      9      -9.5100      2.00000
     10      -9.3396      2.00000
     11      -9.2847      2.00000
     12      -9.2723      2.00000
     13      -7.1087      2.00000
     14      -6.8021      2.00000
     15      -5.6256      2.00000
     16      -5.1771      2.00000
     17      -4.3253      2.00000
     18      -3.9768      2.00000
     19       0.2464      0.00000
     20       0.6793      0.00000
     21       1.5946      0.00000
     22       2.7380      0.00000
     23       2.9172      0.00000
     24       3.3580      0.00000
     25       3.7815      0.00000
     26       3.8275      0.00000
     27       4.2186      0.00000
     28       4.5530      0.00000
     29       5.1789      0.00000
     30       5.5661      0.00000
     31       6.2503      0.00000
     32       7.4819      0.00000

 k-point     6 :       0.3056    0.0278    0.0000
  band No.  band energies     occupation 
      1     -15.8772      2.00000
      2     -15.4257      2.00000
      3      -9.9958      2.00000
      4      -9.8326      2.00000
      5      -9.8239      2.00000
      6      -9.7303      2.00000
      7      -9.7232      2.00000
      8      -9.5935      2.00000
      9      -9.5460      2.00000
     10      -9.3509      2.00000
     11      -9.2795      2.00000
     12      -9.2306      2.00000
     13      -7.4671      2.00000
     14      -7.0819      2.00000
     15      -5.7983      2.00000
     16      -5.4142      2.00000
     17      -4.4971      2.00000
     18      -4.0371      2.00000
     19       0.1456      0.00000
     20       0.6982      0.00000
     21       1.5232      0.00000
     22       2.7091      0.00000
     23       3.2487      0.00000
     24       3.7338      0.00000
     25       4.1264      0.00000
     26       4.2682      0.00000
     27       4.4964      0.00000
     28       5.0387      0.00000
     29       5.7374      0.00000
     30       6.1056      0.00000
     31       6.5932      0.00000
     32       7.4896      0.00000

 k-point     7 :       0.3611    0.0278    0.0000
  band No.  band energies     occupation 
      1     -15.7401      2.00000
      2     -15.3724      2.00000
      3      -9.9458      2.00000
      4      -9.7831      2.00000
      5      -9.7687      2.00000
      6      -9.7351      2.00000
      7      -9.6902      2.00000
      8      -9.6010      2.00000
      9      -9.5652      2.00000
     10      -9.3693      2.00000
     11      -9.2795      2.00000
     12      -9.1969      2.00000
     13      -7.9100      2.00000
     14      -7.3315      2.00000
     15      -5.7442      2.00000
     16      -5.6074      2.00000
     17      -4.6360      2.00000
     18      -4.1277      2.00000
     19       0.0169      0.00000
     20       0.6766      0.00000
     21       1.4102      0.00000
     22       2.5793      0.00000
     23       3.6614      0.00000
     24       4.1499      0.00000
     25       4.4631      0.00000
     26       4.5902      0.00000
     27       5.0512      0.00000
     28       5.5039      0.00000
     29       6.0784      0.00000
     30       6.9213      0.00000
     31       7.0090      0.00000
     32       7.1307      0.00000

 k-point     8 :       0.4167    0.0278    0.0000
  band No.  band energies     occupation 
      1     -15.6312      2.00000
      2     -15.3432      2.00000
      3      -9.8946      2.00000
      4      -9.7490      2.00000
      5      -9.7420      2.00000
      6      -9.7008      2.00000
      7      -9.6613      2.00000
      8      -9.6040      2.00000
      9      -9.5642      2.00000
     10      -9.3944      2.00000
     11      -9.2793      2.00000
     12      -9.1935      2.00000
     13      -8.2210      2.00000
     14      -7.5728      2.00000
     15      -5.7401      2.00000
     16      -5.6117      2.00000
     17      -4.7291      2.00000
     18      -4.2282      2.00000
     19      -0.0833      0.00000
     20       0.6793      0.00000
     21       1.2761      0.00000
     22       2.4651      0.00000
     23       4.1504      0.00000
     24       4.4693      0.00000
     25       4.6671      0.00000
     26       5.1066      0.00000
     27       5.4407      0.00000
     28       5.6333      0.00000
     29       6.2435      0.00000
     30       6.7621      0.00000
     31       7.0261      0.00000
     32       7.3828      0.00000

 k-point     9 :       0.4722    0.0278    0.0000
  band No.  band energies     occupation 
      1     -15.5760      2.00000
      2     -15.3348      2.00000
      3      -9.8674      2.00000
      4      -9.7535      2.00000
      5      -9.7223      2.00000
      6      -9.6748      2.00000
      7      -9.6204      2.00000
      8      -9.6029      2.00000
      9      -9.5579      2.00000
     10      -9.4159      2.00000
     11      -9.2793      2.00000
     12      -9.2136      2.00000
     13      -8.3540      2.00000
     14      -7.6996      2.00000
     15      -5.7990      2.00000
     16      -5.5274      2.00000
     17      -4.7692      2.00000
     18      -4.2904      2.00000
     19      -0.1297      0.00000
     20       0.6951      0.00000
     21       1.1942      0.00000
     22       2.4099      0.00000
     23       4.4535      0.00000
     24       4.7526      0.00000
     25       4.9690      0.00000
     26       5.1043      0.00000
[...]
     27       5.7550      0.00000
     28       6.2007      0.00000
     29       6.2763      0.00000
     30       6.6045      0.00000
     31       7.0186      0.00000
     32       7.1181      0.00000

 k-point    81 :       0.4722    0.3611    0.0000
  band No.  band energies     occupation 
      1     -15.5171      2.00000
      2     -15.3086      2.00000
      3      -9.8198      2.00000
      4      -9.7331      2.00000
      5      -9.6873      2.00000
      6      -9.6858      2.00000
      7      -9.6237      2.00000
      8      -9.5699      2.00000
      9      -9.5505      2.00000
     10      -9.3231      2.00000
     11      -9.2978      2.00000
     12      -9.1532      2.00000
     13      -8.1284      2.00000
     14      -7.6370      2.00000
     15      -6.4617      2.00000
     16      -5.5416      2.00000
     17      -5.1459      2.00000
     18      -4.3244      2.00000
     19       1.1355      0.00000
     20       1.2474      0.00000
     21       1.3952      0.00000
     22       2.7481      0.00000
     23       3.3782      0.00000
     24       4.5171      0.00000
     25       4.8561      0.00000
     26       5.3248      0.00000
     27       5.4497      0.00000
     28       5.9046      0.00000
     29       6.4024      0.00000
     30       6.5232      0.00000
     31       7.0677      0.00000
     32       7.2942      0.00000

 k-point    82 :      -0.4722    0.3611    0.0000
  band No.  band energies     occupation 
      1     -15.5948      2.00000
      2     -15.3216      2.00000
      3      -9.8692      2.00000
      4      -9.7407      2.00000
      5      -9.7121      2.00000
      6      -9.7048      2.00000
      7      -9.6177      2.00000
      8      -9.5841      2.00000
      9      -9.5590      2.00000
     10      -9.3548      2.00000
     11      -9.2841      2.00000
     12      -9.1626      2.00000
     13      -8.0922      2.00000
     14      -7.5265      2.00000
     15      -6.0378      2.00000
     16      -5.5810      2.00000
     17      -4.9649      2.00000
     18      -4.2264      2.00000
     19       0.5443      0.00000
     20       0.9742      0.00000
     21       1.3300      0.00000
     22       2.5833      0.00000
     23       3.7379      0.00000
     24       4.2713      0.00000
     25       4.7014      0.00000
     26       5.0965      0.00000
     27       5.2914      0.00000
     28       5.6517      0.00000
     29       6.4626      0.00000
     30       6.6646      0.00000
     31       7.1244      0.00000
     32       7.5055      0.00000

 k-point    83 :      -0.4167    0.3611    0.0000
  band No.  band energies     occupation 
      1     -15.6731      2.00000
      2     -15.3432      2.00000
      3      -9.9103      2.00000
      4      -9.7558      2.00000
      5      -9.7324      2.00000
      6      -9.7189      2.00000
      7      -9.6544      2.00000
      8      -9.5902      2.00000
      9      -9.5503      2.00000
     10      -9.3580      2.00000
     11      -9.2708      2.00000
     12      -9.1786      2.00000
     13      -7.9744      2.00000
     14      -7.3932      2.00000
     15      -5.7049      2.00000
     16      -5.6804      2.00000
     17      -4.7181      2.00000
     18      -4.1595      2.00000
     19       0.1421      0.00000
     20       0.7241      0.00000
     21       1.3340      0.00000
     22       2.5426      0.00000
     23       3.8249      0.00000
     24       4.2001      0.00000
     25       4.4966      0.00000
     26       4.8255      0.00000
     27       5.2160      0.00000
     28       5.5648      0.00000
     29       6.2660      0.00000
     30       6.9119      0.00000
     31       7.2257      0.00000
     32       7.3634      0.00000

 k-point    84 :      -0.3611    0.3611    0.0000
  band No.  band energies     occupation 
      1     -15.7448      2.00000
      2     -15.3682      2.00000
      3      -9.9415      2.00000
      4      -9.7783      2.00000
      5      -9.7612      2.00000
      6      -9.7187      2.00000
      7      -9.6839      2.00000
      8      -9.5848      2.00000
      9      -9.5435      2.00000
     10      -9.3495      2.00000
     11      -9.2662      2.00000
     12      -9.1957      2.00000
     13      -7.7889      2.00000
     14      -7.2540      2.00000
     15      -5.7734      2.00000
     16      -5.5036      2.00000
     17      -4.5736      2.00000
     18      -4.1119      2.00000
     19       0.0365      0.00000
     20       0.6314      0.00000
     21       1.3852      0.00000
     22       2.5880      0.00000
     23       3.6123      0.00000
     24       4.1064      0.00000
     25       4.4494      0.00000
     26       4.5564      0.00000
     27       4.9963      0.00000
     28       5.4701      0.00000
     29       6.0937      0.00000
     30       6.7644      0.00000
     31       6.9762      0.00000
     32       7.1763      0.00000

 k-point    85 :       0.4167    0.4167    0.0000
  band No.  band energies     occupation 
      1     -15.4806      2.00000
      2     -15.3076      2.00000
      3      -9.7957      2.00000
      4      -9.7277      2.00000
      5      -9.6889      2.00000
      6      -9.6776      2.00000
      7      -9.6190      2.00000
      8      -9.5616      2.00000
      9      -9.5382      2.00000
     10      -9.3166      2.00000
     11      -9.2860      2.00000
     12      -9.1744      2.00000
     13      -8.2080      2.00000
     14      -7.7051      2.00000
     15      -6.5176      2.00000
     16      -5.5552      2.00000
     17      -5.0909      2.00000
     18      -4.3873      2.00000
     19       1.1104      0.00000
     20       1.3012      0.00000
     21       1.3064      0.00000
     22       2.7822      0.00000
     23       3.3151      0.00000
     24       4.8512      0.00000
     25       4.9789      0.00000
     26       5.5597      0.00000
     27       5.7128      0.00000
     28       6.2107      0.00000
     29       6.2509      0.00000
     30       6.6051      0.00000
     31       6.7940      0.00000
     32       6.9812      0.00000

 k-point    86 :       0.4722    0.4167    0.0000
  band No.  band energies     occupation 
      1     -15.5258      2.00000
      2     -15.3112      2.00000
      3      -9.8307      2.00000
      4      -9.7302      2.00000
      5      -9.6978      2.00000
      6      -9.6900      2.00000
      7      -9.6066      2.00000
      8      -9.5536      2.00000
      9      -9.5469      2.00000
     10      -9.3556      2.00000
     11      -9.2902      2.00000
     12      -9.1807      2.00000
     13      -8.2668      2.00000
     14      -7.6761      2.00000
     15      -6.1273      2.00000
     16      -5.5069      2.00000
     17      -4.9805      2.00000
     18      -4.3180      2.00000
     19       0.4867      0.00000
     20       0.9976      0.00000
     21       1.2275      0.00000
     22       2.5470      0.00000
     23       3.7578      0.00000
     24       4.7482      0.00000
     25       4.9843      0.00000
     26       5.4940      0.00000
     27       5.4995      0.00000
     28       5.9769      0.00000
     29       6.3123      0.00000
     30       6.7378      0.00000
     31       6.8151      0.00000
     32       7.1742      0.00000

 k-point    87 :      -0.4722    0.4167    0.0000
  band No.  band energies     occupation 
      1     -15.5767      2.00000
      2     -15.3193      2.00000
      3      -9.8629      2.00000
      4      -9.7332      2.00000
      5      -9.7172      2.00000
      6      -9.6818      2.00000
      7      -9.6159      2.00000
      8      -9.5870      2.00000
      9      -9.5446      2.00000
     10      -9.3804      2.00000
     11      -9.2715      2.00000
     12      -9.1818      2.00000
     13      -8.2460      2.00000
     14      -7.6106      2.00000
     15      -5.8079      2.00000
     16      -5.5696      2.00000
     17      -4.7920      2.00000
     18      -4.2581      2.00000
     19       0.0559      0.00000
     20       0.7295      0.00000
     21       1.2072      0.00000
     22       2.4479      0.00000
     23       4.1627      0.00000
     24       4.4859      0.00000
     25       4.8451      0.00000
     26       5.3410      0.00000
     27       5.4453      0.00000
     28       5.7634      0.00000
     29       6.3557      0.00000
     30       6.8100      0.00000
     31       7.0268      0.00000
     32       7.3550      0.00000

 k-point    88 :      -0.4167    0.4167    0.0000
  band No.  band energies     occupation 
      1     -15.6276      2.00000
      2     -15.3307      2.00000
      3      -9.8894      2.00000
      4      -9.7369      2.00000
      5      -9.7303      2.00000
      6      -9.6878      2.00000
      7      -9.6590      2.00000
      8      -9.5880      2.00000
      9      -9.5458      2.00000
     10      -9.3734      2.00000
     11      -9.2656      2.00000
     12      -9.1810      2.00000
     13      -8.1452      2.00000
     14      -7.5104      2.00000
     15      -5.6501      2.00000
     16      -5.6470      2.00000
     17      -4.6802      2.00000
     18      -4.2094      2.00000
     19      -0.0730      0.00000
     20       0.6215      0.00000
     21       1.2463      0.00000
     22       2.4583      0.00000
     23       4.0852      0.00000
     24       4.5118      0.00000
     25       4.5562      0.00000
     26       5.0735      0.00000
     27       5.4953      0.00000
     28       5.6543      0.00000
     29       6.3162      0.00000
     30       6.9642      0.00000
     31       7.2021      0.00000
     32       7.4306      0.00000

 k-point    89 :       0.4722    0.4722    0.0000
  band No.  band energies     occupation 
      1     -15.5394      2.00000
      2     -15.3140      2.00000
      3      -9.8442      2.00000
      4      -9.7363      2.00000
      5      -9.7037      2.00000
      6      -9.6704      2.00000
      7      -9.5956      2.00000
      8      -9.5686      2.00000
      9      -9.5402      2.00000
     10      -9.3933      2.00000
     11      -9.2730      2.00000
     12      -9.1973      2.00000
     13      -8.3362      2.00000
     14      -7.6960      2.00000
     15      -5.8482      2.00000
     16      -5.5136      2.00000
     17      -4.8140      2.00000
     18      -4.3035      2.00000
     19       0.0251      0.00000
     20       0.7424      0.00000
     21       1.1489      0.00000
     22       2.4132      0.00000
     23       4.2322      0.00000
     24       4.9268      0.00000
     25       4.9273      0.00000
     26       5.2510      0.00000
     27       5.5205      0.00000
     28       6.0385      0.00000
     29       6.1801      0.00000
     30       6.5827      0.00000
     31       6.9124      0.00000
     32       7.6599      0.00000

 k-point    90 :      -0.4722    0.4722    0.0000
  band No.  band energies     occupation 
      1     -15.5571      2.00000
      2     -15.3167      2.00000
      3      -9.8553      2.00000
      4      -9.7380      2.00000
      5      -9.7111      2.00000
      6      -9.6514      2.00000
      7      -9.6125      2.00000
      8      -9.5872      2.00000
      9      -9.5380      2.00000
     10      -9.3994      2.00000
     11      -9.2649      2.00000
     12      -9.1972      2.00000
     13      -8.3295      2.00000
     14      -7.6740      2.00000
     15      -5.7270      2.00000
     16      -5.5407      2.00000
     17      -4.7358      2.00000
     18      -4.2837      2.00000
     19      -0.1338      0.00000
     20       0.6343      0.00000
     21       1.1437      0.00000
     22       2.3837      0.00000
     23       4.5335      0.00000
     24       4.6242      0.00000
     25       4.9680      0.00000
     26       5.1910      0.00000
     27       5.5051      0.00000
     28       5.8428      0.00000
     29       6.3034      0.00000
     30       6.5924      0.00000
     31       6.9903      0.00000
     32       7.6852      0.00000


--------------------------------------------------------------------------------------------------------


 soft charge-density along one line, spin component           1
         0         1         2         3         4         5         6         7         8         9
 total charge-density along one line
 
 pseudopotential strength for first ion, spin component:           1
 41.945  48.174   0.000   0.038  -0.000   0.000   0.052  -0.000
 48.174  55.331   0.000   0.044  -0.000   0.000   0.060  -0.000
  0.000   0.000   8.656   0.000  -0.000  11.726   0.000  -0.000
  0.038   0.044   0.000   8.647  -0.000   0.000  11.715  -0.000
 -0.000  -0.000  -0.000  -0.000   8.656  -0.000  -0.000  11.726
  0.000   0.000  11.726   0.000  -0.000  15.905   0.000  -0.000
  0.052   0.060   0.000  11.715  -0.000   0.000  15.890  -0.000
 -0.000  -0.000  -0.000  -0.000  11.726  -0.000  -0.000  15.905
 total augmentation occupancy for first ion, spin component:           1
 11.433  -7.201   0.000   2.597   0.000   0.000  -0.995  -0.000
 -7.201   5.271  -0.000  -2.307   0.000   0.000   0.817   0.000
  0.000  -0.000   3.914  -0.000   0.000  -1.186   0.000  -0.000
  2.597  -2.307  -0.000   3.285  -0.000   0.000  -0.821  -0.000
 -0.000   0.000   0.000  -0.000   3.914  -0.000  -0.000  -1.186
  0.000   0.000  -1.186   0.000  -0.000   0.408   0.000   0.000
 -0.995   0.817   0.000  -0.821  -0.000   0.000   0.262   0.000
  0.000   0.000  -0.000  -0.000  -1.186   0.000   0.000   0.408


------------------------ aborting loop because EDIFF is reached ----------------------------------------


    CHARGE:  cpu time    0.0925: real time    0.0928
    FORLOC:  cpu time    0.0014: real time    0.0014
    FORNL :  cpu time    0.1720: real time    0.1724
    STRESS:  cpu time    3.0348: real time    3.0421
    FORCOR:  cpu time    0.0113: real time    0.0113
    FORHAR:  cpu time    0.0034: real time    0.0034
    MIXING:  cpu time    0.0004: real time    0.0004
    OFIELD:  cpu time    0.0000: real time    0.0000

 ---------------------------------------------------------------------------------------------

         DFTD3 V3.0 Rev 1        
 Edisp (eV)   -0.64406

 E6    (eV) :    -0.2516
 E8    (eV) :    -0.3925
 % E8        : 60.94
    FORVDW:  cpu time    0.0074: real time    0.0096

  FORCE on cell =-STRESS in cart. coord.  units (eV):
  Direction    XX          YY          ZZ          XY          YZ          ZX
  --------------------------------------------------------------------------------------
  Alpha Z    45.77012    45.77012    45.77012
  Ewald    7387.32319  7387.32341 -9150.75993     0.00000     0.00001    -0.00000
  Hartree  8334.25598  8334.25603 -7469.07415     0.00000     0.00000    -0.00000
  E(xc)    -186.77831  -186.77832  -187.42697    -0.00000     0.00000    -0.00000
  Local  -16004.84966-16004.85019 16326.44854    -0.00026    -0.00001     0.00000
  n-local    78.80932    82.99292    77.60365    -1.20762     0.14291     0.08320
  augment    45.90544    45.90572    46.31489     0.00025     0.00000    -0.00000
  Kinetic   294.40081   302.22397   311.36911    -2.25834     0.17158     0.09906
  Fock        0.00000     0.00000     0.00000     0.00000     0.00000     0.00000
  vdW        -0.89098    -0.89098    -0.10465    -0.00000     0.00000    -0.00000
  -------------------------------------------------------------------------------------
  Total      -0.05071    -0.05071     0.14061    -0.00000     0.00000    -0.00000
  in kB      -0.32883    -0.32883     0.91183    -0.00000     0.00000    -0.00000
  external pressure =        0.08 kB  Pullay stress =        0.00 kB


 VOLUME and BASIS-vectors are now :
 -----------------------------------------------------------------------------
  energy-cutoff  :      500.00
  volume of cell :      247.06
      direct lattice vectors                 reciprocal lattice vectors
     3.889680290  0.000000000  0.000000000     0.257090538  0.148431292  0.000000000
    -1.944840145  3.368561944  0.000000000     0.000000000  0.296862583  0.000000000
     0.000000000  0.000000000 18.855800629     0.000000000  0.000000000  0.053034078

  length of vectors
     3.889680290  3.889680290 18.855800629     0.296862583  0.296862583  0.053034078


 FORCES acting on ions
    electron-ion (+dipol)            ewald-force                    non-local-force                 convergence-correction
 -----------------------------------------------------------------------------------------------
   -.351E-06 -.209E-04 0.726E+03   0.402E-07 -.228E-04 -.730E+03   -.798E-17 0.601E-17 0.402E+01   0.992E-07 -.593E-07 0.942E-02
   0.241E-06 0.210E-04 -.726E+03   -.402E-07 0.228E-04 0.730E+03   -.546E-17 0.163E-17 -.402E+01   -.992E-07 0.593E-07 -.942E-02
   -.129E-05 -.122E-05 -.920E+03   0.513E-07 -.294E-04 0.922E+03   0.580E-17 0.536E-17 -.189E+01   0.191E-06 -.129E-06 -.376E-01
   0.128E-05 0.123E-05 0.920E+03   -.513E-07 0.294E-04 -.922E+03   0.473E-17 -.162E-17 0.189E+01   -.191E-06 0.129E-06 0.376E-01
 -----------------------------------------------------------------------------------------------
   -.121E-06 0.604E-07 0.960E-06   -.585E-14 0.164E-13 0.000E+00   -.291E-17 0.114E-16 0.000E+00   -.193E-10 0.884E-11 -.250E-07
 
 
 POSITION                                       TOTAL-FORCE (eV/Angst)
 -----------------------------------------------------------------------------------
      0.00000      2.24571      7.85346         0.000000     -0.000000      0.000650
      1.94484      1.12285     11.00234         0.000000      0.000000     -0.000650
      0.00000      2.24571     10.45240        -0.000000      0.000000      0.003672
      1.94484      1.12285      8.40340        -0.000000     -0.000000     -0.003672
 -----------------------------------------------------------------------------------
    total drift:                               -0.000000      0.000000      0.000001


--------------------------------------------------------------------------------------------------------



  FREE ENERGIE OF THE ION-ELECTRON SYSTEM (eV)
  ---------------------------------------------------
  free  energy   TOTEN  =       -13.78981458 eV

  energy  without entropy=      -13.78981458  energy(sigma->0) =      -13.78981458
 
 d Force = 0.1090020E-04[ 0.133E-06, 0.217E-04]  d Energy = 0.1660439E-03-0.155E-03
 d Force = 0.3740698E+01[ 0.374E+01, 0.374E+01]  d Ewald  =-0.5066428E+01 0.881E+01


--------------------------------------------------------------------------------------------------------


    POTLOK:  cpu time    0.1129: real time    0.1132


--------------------------------------------------------------------------------------------------------




--------------------------------------------------------------------------------------------------------


  
 reached required accuracy - stopping structural energy minimisation
 writing wavefunctions
     LOOP+:  cpu time   11.4505: real time   11.8684
    4ORBIT:  cpu time    0.0000: real time    0.0000

 total amount of memory used by VASP MPI-rank0   214945. kBytes
=======================================================================

   base      :      30000. kBytes
   nonl-proj :     164634. kBytes
   fftplans  :       4865. kBytes
   grid      :       6168. kBytes
   one-center:         62. kBytes
   wavefun   :       9216. kBytes
 
  
  
 General timing and accounting informations for this job:
 ========================================================
  
                  Total CPU time used (sec):       92.514
                            User time (sec):       91.859
                          System time (sec):        0.654
                         Elapsed time (sec):       93.268
  
                   Maximum memory used (kb):      408260.
                   Average memory used (kb):           0.
  
                          Minor page faults:        95509
                          Major page faults:            0
                 Voluntary context switches:         1022
