 vasp.6.4.0 14Feb23 (build Dec 31 2025 13:57:05) complex                        
  
 executed on             LinuxIFC date 2026.06.29  15:18:12
 running   24 mpi-ranks, with    1 threads/rank, on    1 nodes
 distrk:  each k-point on   24 cores,    1 groups
 distr:  one band on NCORE=  12 cores,    2 groups


--------------------------------------------------------------------------------------------------------


 INCAR:
   ISTART = 1            (Read existing wavefunction, if there)
   ISPIN = 1            (Non-Spin polarised DFT)
   LREAL = .FALSE.       (Projection operators: automatic)
   ENCUT = 500        (Cut-off energy for plane wave basis set, in eV)
   LWAVE = .TRUE.        (Write WAVECAR or not)
   LCHARG = .TRUE.        (Write CHGCAR or not)
   ADDGRID = .TRUE.        (Increase grid, helps GGA convergence)
   LASPH = .TRUE.        (Give more accurate total energies and band structure calculations)
   PREC = Accurate      (Accurate strictly avoids any aliasing or wrap around errors)
   LVTOT = .TRUE.      (Write total electrostatic potential into LOCPOT or not)
   LVHAR = .TRUE.      (Write ionic + Hartree electrostatic potential into LOCPOT or not)
   ISMEAR = 0            (gaussian smearing method)
   SIGMA = 0.05         (please check the width of the smearing)
   LORBIT = 11           (PAW radii for projected DOS)
   NEDOS = 2001         (DOSCAR points)
   NELM = 60           (Max electronic SCF steps)
   EDIFF = 1E-08        (SCF energy convergence, in eV)
   IVDW = 11           (DFT-D3 method of method with no damping)
   NPAR = 2
   KPAR = 1

 POTCAR:    PAW_PBE Cd 06Sep2000                  
 POTCAR:    PAW_PBE Cl 06Sep2000                  
 POTCAR:    PAW_PBE Zn 06Sep2000                  
 POTCAR:    PAW_PBE S 06Sep2000                   
 POTCAR:    PAW_PBE Cd 06Sep2000                  
   SHA256 =  8b7ca71966beae5276c8bb910adb3ecc013a3354c27473914c94cd54c83be4f7 Cd/POTCAR             
   COPYR  = (c) Copyright 06Sep2000 Georg Kresse                                                    
   COPYR  = This file is part of the software VASP. Any use, copying, and all other rights are regul
   COPYR  = If you do not have a valid VASP license, you may not use, copy or distribute this file. 
   VRHFIN =Cd : s2 d10                                                                              
   LEXCH  = PE                                                                                      
   EATOM  =  1293.1815 eV,   95.0462 Ry                                                             
                                                                                                    
   TITEL  = PAW_PBE Cd 06Sep2000                                                                    
   LULTRA =        F    use ultrasoft PP ?                                                          
   IUNSCR =        1    unscreen: 0-lin 1-nonlin 2-no                                               
   RPACOR =    2.000    partial core radius                                                         
   POMASS =  112.411; ZVAL   =   12.000    mass and valenz                                          
   RCORE  =    2.300    outmost cutoff radius                                                       
   RWIGS  =    2.980; RWIGS  =    1.577    wigner-seitz radius (au A)                               
   ENMAX  =  274.336; ENMIN  =  205.752 eV                                                          
   RCLOC  =    2.054    cutoff for local pot                                                        
   LCOR   =        T    correct aug charges                                                         
   LPAW   =        T    paw PP                                                                      
   EAUG   =  456.106                                                                                
   DEXC   =    0.000                                                                                
   RMAX   =    2.358    core radius for proj-oper                                                   
   RAUG   =    1.300    factor for augmentation sphere                                              
   RDEP   =    2.450    radius for radial grids                                                     
   RDEPT  =    1.955    core radius for aug-charge                                                  
                                                                                                    
   Atomic configuration                                                                             
   12 entries                                                                                       
     n  l   j            E        occ.                                                              
     1  0  0.50    -26519.7817   2.0000                                                             
     2  0  0.50     -3936.9612   2.0000                                                             
     2  1  1.50     -3532.2230   6.0000                                                             
     3  0  0.50      -733.7908   2.0000                                                             
     3  1  1.50      -601.0792   6.0000                                                             
     3  2  2.50      -393.5307  10.0000                                                             
     4  0  0.50      -105.8977   2.0000                                                             
     4  1  1.50       -66.9488   6.0000                                                             
     4  2  2.50       -11.7331  10.0000                                                             
     5  0  0.50        -5.6592   2.0000                                                             
     5  1  0.50        -1.3606   0.0000                                                             
     4  3  2.50        -1.3606   0.0000                                                             
   Description                                                                                      
     l       E           TYP  RCUT    TYP  RCUT                                                     
     2    -11.7331479     23  2.300                                                                 
     2    -13.0937305     23  2.300                                                                 
     0     -5.6591502     23  2.300                                                                 
     0     -1.5561433     23  2.300                                                                 
     1     -2.7211652     23  2.300                                                                 
     1      8.3548275     23  2.300                                                                 
  local pseudopotential read in
  partial core-charges read in
  partial kinetic energy density read in
  atomic valenz-charges read in
  non local Contribution for L=           2  read in
    real space projection operators read in
  non local Contribution for L=           2  read in
    real space projection operators read in
  non local Contribution for L=           0  read in
    real space projection operators read in
  non local Contribution for L=           0  read in
    real space projection operators read in
  non local Contribution for L=           1  read in
    real space projection operators read in
  non local Contribution for L=           1  read in
    real space projection operators read in
    PAW grid and wavefunctions read in
 
   number of l-projection  operators is LMAX  =           6
   number of lm-projection operators is LMMAX =          18
 
 POTCAR:    PAW_PBE Cl 06Sep2000                  
   SHA256 =  9f1b6e6ed4247ac726a768b330d26d7667cc3c95a39ff49c1d064c2d9dcce931 Cl/POTCAR             
   COPYR  = (c) Copyright 06Sep2000 Georg Kresse                                                    
   COPYR  = This file is part of the software VASP. Any use, copying, and all other rights are regul
   COPYR  = If you do not have a valid VASP license, you may not use, copy or distribute this file. 
   VRHFIN =Cl: s2p5                                                                                 
   LEXCH  = PE                                                                                      
   EATOM  =   409.7259 eV,   30.1140 Ry                                                             
                                                                                                    
   TITEL  = PAW_PBE Cl 06Sep2000                                                                    
   LULTRA =        F    use ultrasoft PP ?                                                          
   IUNSCR =        1    unscreen: 0-lin 1-nonlin 2-no                                               
   RPACOR =    1.500    partial core radius                                                         
   POMASS =   35.453; ZVAL   =    7.000    mass and valenz                                          
   RCORE  =    1.900    outmost cutoff radius                                                       
   RWIGS  =    2.100; RWIGS  =    1.111    wigner-seitz radius (au A)                               
   ENMAX  =  262.472; ENMIN  =  196.854 eV                                                          
   ICORE  =        2    local potential                                                             
   LCOR   =        T    correct aug charges                                                         
   LPAW   =        T    paw PP                                                                      
   EAUG   =  356.192                                                                                
   DEXC   =    0.000                                                                                
   RMAX   =    1.945    core radius for proj-oper                                                   
   RAUG   =    1.300    factor for augmentation sphere                                              
   RDEP   =    2.020    radius for radial grids                                                     
   RDEPT  =    1.678    core radius for aug-charge                                                  
                                                                                                    
   Atomic configuration                                                                             
    6 entries                                                                                       
     n  l   j            E        occ.                                                              
     1  0  0.50     -2751.1850   2.0000                                                             
     2  0  0.50      -252.6861   2.0000                                                             
     2  1  1.50      -191.6157   6.0000                                                             
     3  0  0.50       -20.6916   2.0000                                                             
     3  1  0.50        -8.5949   5.0000                                                             
     3  2  1.50        -8.1635   0.0000                                                             
   Description                                                                                      
     l       E           TYP  RCUT    TYP  RCUT                                                     
     0    -20.6915656     23  1.900                                                                 
     0    -22.0521482     23  1.900                                                                 
     1     -8.5948577     23  1.900                                                                 
     1     -5.3847331     23  1.900                                                                 
     2     -8.1634956     23  1.900                                                                 
  local pseudopotential read in
  partial core-charges read in
  partial kinetic energy density read in
  atomic valenz-charges read in
  non local Contribution for L=           0  read in
    real space projection operators read in
  non local Contribution for L=           0  read in
    real space projection operators read in
  non local Contribution for L=           1  read in
    real space projection operators read in
  non local Contribution for L=           1  read in
    real space projection operators read in
    PAW grid and wavefunctions read in
 
   number of l-projection  operators is LMAX  =           4
   number of lm-projection operators is LMMAX =           8
 
 POTCAR:    PAW_PBE Zn 06Sep2000                  
   SHA256 =  501fddbd8274dd8e9725d4f3de27861d7f1e553a7e18441bc79fed8f346e7f23 Zn/POTCAR             
   COPYR  = (c) Copyright 06Sep2000 Georg Kresse                                                    
   COPYR  = This file is part of the software VASP. Any use, copying, and all other rights are regul
   COPYR  = If you do not have a valid VASP license, you may not use, copy or distribute this file. 
   VRHFIN =Zn: d10 p2                                                                               
   LEXCH  = PE                                                                                      
   EATOM  =  1748.8345 eV,  128.5357 Ry                                                             
                                                                                                    
   TITEL  = PAW_PBE Zn 06Sep2000                                                                    
   LULTRA =        F    use ultrasoft PP ?                                                          
   IUNSCR =        1    unscreen: 0-lin 1-nonlin 2-no                                               
   RPACOR =    2.000    partial core radius                                                         
   POMASS =   65.390; ZVAL   =   12.000    mass and valenz                                          
   RCORE  =    2.300    outmost cutoff radius                                                       
   RWIGS  =    2.400; RWIGS  =    1.270    wigner-seitz radius (au A)                               
   ENMAX  =  276.723; ENMIN  =  207.542 eV                                                          
   RCLOC  =    1.828    cutoff for local pot                                                        
   LCOR   =        T    correct aug charges                                                         
   LPAW   =        T    paw PP                                                                      
   EAUG   =  575.892                                                                                
   DEXC   =    0.000                                                                                
   RMAX   =    2.347    core radius for proj-oper                                                   
   RAUG   =    1.300    factor for augmentation sphere                                              
   RDEP   =    2.324    radius for radial grids                                                     
   RDEPT  =    1.788    core radius for aug-charge                                                  
                                                                                                    
   Atomic configuration                                                                             
    9 entries                                                                                       
     n  l   j            E        occ.                                                              
     1  0  0.50     -9524.6913   2.0000                                                             
     2  0  0.50     -1158.1882   2.0000                                                             
     2  1  1.50     -1003.8506   6.0000                                                             
     3  0  0.50      -129.2194   2.0000                                                             
     3  1  1.50       -83.3890   6.0000                                                             
     3  2  2.50       -10.1410  10.0000                                                             
     4  0  0.50        -5.9785   2.0000                                                             
     4  1  0.50        -4.0817   0.0000                                                             
     4  3  2.50        -1.3606   0.0000                                                             
   Description                                                                                      
     l       E           TYP  RCUT    TYP  RCUT                                                     
     2    -10.1410010     23  2.300                                                                 
     2    -11.5015836     23  2.300                                                                 
     0     -5.9785163     23  2.300                                                                 
     0      1.1858015     23  2.300                                                                 
     1     -2.7211652     23  2.300                                                                 
     1     13.2444212     23  2.300                                                                 
  local pseudopotential read in
  partial core-charges read in
  partial kinetic energy density read in
  atomic valenz-charges read in
  non local Contribution for L=           2  read in
    real space projection operators read in
  non local Contribution for L=           2  read in
    real space projection operators read in
  non local Contribution for L=           0  read in
    real space projection operators read in
  non local Contribution for L=           0  read in
    real space projection operators read in
  non local Contribution for L=           1  read in
    real space projection operators read in
  non local Contribution for L=           1  read in
    real space projection operators read in
    PAW grid and wavefunctions read in
 
   number of l-projection  operators is LMAX  =           6
   number of lm-projection operators is LMMAX =          18
 
 POTCAR:    PAW_PBE S 06Sep2000                   
   SHA256 =  0fc7481fb0695f01bdc6462160264c5c84044ae9ec85a907d398b887a2bc3132 S/POTCAR              
   COPYR  = (c) Copyright 06Sep2000 Georg Kresse                                                    
   COPYR  = This file is part of the software VASP. Any use, copying, and all other rights are regul
   COPYR  = If you do not have a valid VASP license, you may not use, copy or distribute this file. 
   VRHFIN =S : s2p4                                                                                 
   LEXCH  = PE                                                                                      
   EATOM  =   276.8230 eV,   20.3459 Ry                                                             
                                                                                                    
   TITEL  = PAW_PBE S 06Sep2000                                                                     
   LULTRA =        F    use ultrasoft PP ?                                                          
   IUNSCR =        1    unscreen: 0-lin 1-nonlin 2-no                                               
   RPACOR =    1.500    partial core radius                                                         
   POMASS =   32.066; ZVAL   =    6.000    mass and valenz                                          
   RCORE  =    1.900    outmost cutoff radius                                                       
   RWIGS  =    2.200; RWIGS  =    1.164    wigner-seitz radius (au A)                               
   ENMAX  =  258.689; ENMIN  =  194.016 eV                                                          
   ICORE  =        2    local potential                                                             
   LCOR   =        T    correct aug charges                                                         
   LPAW   =        T    paw PP                                                                      
   EAUG   =  335.092                                                                                
   DEXC   =    0.000                                                                                
   RMAX   =    1.942    core radius for proj-oper                                                   
   RAUG   =    1.300    factor for augmentation sphere                                              
   RDEP   =    1.954    radius for radial grids                                                     
   RDEPT  =    1.744    core radius for aug-charge                                                  
                                                                                                    
   Atomic configuration                                                                             
    6 entries                                                                                       
     n  l   j            E        occ.                                                              
     1  0  0.50     -2405.8406   2.0000                                                             
     2  0  0.50      -211.7007   2.0000                                                             
     2  1  1.50      -156.4958   6.0000                                                             
     3  0  0.50       -17.2562   2.0000                                                             
     3  1  0.50        -7.0085   4.0000                                                             
     3  2  1.50        -6.8029   0.0000                                                             
   Description                                                                                      
     l       E           TYP  RCUT    TYP  RCUT                                                     
     0    -17.2561641     23  1.900                                                                 
     0    -15.8743224     23  1.900                                                                 
     1     -7.0085400     23  1.900                                                                 
     1     -2.7779785     23  1.900                                                                 
     2     -6.8029130     23  1.900                                                                 
  local pseudopotential read in
  partial core-charges read in
  partial kinetic energy density read in
  atomic valenz-charges read in
  non local Contribution for L=           0  read in
    real space projection operators read in
  non local Contribution for L=           0  read in
    real space projection operators read in
  non local Contribution for L=           1  read in
    real space projection operators read in
  non local Contribution for L=           1  read in
    real space projection operators read in
    PAW grid and wavefunctions read in
 
   number of l-projection  operators is LMAX  =           4
   number of lm-projection operators is LMMAX =           8
 
 -----------------------------------------------------------------------------
|                                                                             |
|               ----> ADVICE to this user running VASP <----                  |
|                                                                             |
|     You have a (more or less) 'large supercell' and for larger cells it     |
|     might be more efficient to use real-space projection operators.         |
|     Therefore, try LREAL= Auto in the INCAR file.                           |
|     Mind: For very accurate calculation, you might also keep the            |
|     reciprocal projection scheme (i.e. LREAL=.FALSE.).                      |
|                                                                             |
 -----------------------------------------------------------------------------

  PAW_PBE Cd 06Sep2000                  :
 energy of atom  1       EATOM=-1293.1815
 kinetic energy error for atom=    0.0063 (will be added to EATOM!!)
  PAW_PBE Cl 06Sep2000                  :
 energy of atom  2       EATOM= -409.7259
 kinetic energy error for atom=    0.0030 (will be added to EATOM!!)
  PAW_PBE Zn 06Sep2000                  :
 energy of atom  3       EATOM=-1748.8345
 kinetic energy error for atom=    0.0029 (will be added to EATOM!!)
  PAW_PBE S 06Sep2000                   :
 energy of atom  4       EATOM= -276.8230
 kinetic energy error for atom=    0.0020 (will be added to EATOM!!)
 
 
 POSCAR: cif2pos.py
  positions in direct lattice
  velocities in cartesian coordinates
 exchange correlation table for  LEXCH =        8
   RHO(1)=    0.500       N(1)  =     2000
   RHO(2)=  100.500       N(2)  =     4000
 


--------------------------------------------------------------------------------------------------------


 ion  position               nearest neighbor table
   1  0.333  0.000  0.628-  24 2.66  22 2.66  21 2.66  13 2.67  10 2.67  12 2.67
   2  0.333  0.333  0.629-  22 2.66  19 2.66  23 2.66  14 2.67  10 2.67  11 2.67
   3  0.333  0.666  0.629-  24 2.66  20 2.66  23 2.66  15 2.67  12 2.67  11 2.67
   4  0.667  0.000  0.628-  24 2.66  25 2.66  27 2.66  13 2.67  16 2.67  15 2.67
   5  0.667  0.333  0.628-  22 2.66  25 2.66  26 2.66  13 2.67  17 2.67  14 2.67
   6  0.667  0.667  0.628-  26 2.66  27 2.66  15 2.67  14 2.67  18 2.67  23 2.68
   7  0.000  0.000  0.628-  21 2.66  27 2.66  10 2.67  16 2.67  18 2.67  19 2.68
   8  0.000  0.333  0.629-  25 2.66  19 2.66  20 2.66  17 2.67  16 2.67  11 2.67
   9  0.000  0.667  0.628-  26 2.66  21 2.66  12 2.67  17 2.67  18 2.67  20 2.68
  10  0.222  0.111  0.686-   2 2.67   7 2.67   1 2.67
  11  0.222  0.444  0.687-   8 2.67   2 2.67   3 2.67
  12  0.222  0.777  0.686-   3 2.67   9 2.67   1 2.67
  13  0.556  0.111  0.687-   1 2.67   4 2.67   5 2.67
  14  0.556  0.445  0.686-   2 2.67   6 2.67   5 2.67
  15  0.556  0.777  0.686-   3 2.67   6 2.67   4 2.67
  16  0.889  0.111  0.686-   8 2.67   7 2.67   4 2.67
  17  0.889  0.445  0.686-   8 2.67   9 2.67   5 2.67
  18  0.889  0.778  0.686-   6 2.67   9 2.67   7 2.67
  19  0.112  0.224  0.570-   2 2.66   8 2.66   7 2.68
  20  0.112  0.555  0.570-   3 2.66   8 2.66   9 2.68
  21  0.112  0.889  0.571-   7 2.66   9 2.66   1 2.66
  22  0.444  0.222  0.571-   5 2.66   1 2.66   2 2.66
  23  0.443  0.555  0.570-   3 2.66   2 2.66   6 2.68
  24  0.444  0.889  0.571-   4 2.66   1 2.66   3 2.66
  25  0.778  0.222  0.571-   5 2.66   4 2.66   8 2.66
  26  0.778  0.555  0.571-   9 2.66   6 2.66   5 2.66
  27  0.778  0.889  0.571-   7 2.66   6 2.66   4 2.66
  28  0.221  0.114  0.344-  57 2.32  54 2.32  56 2.32  46 2.58
  29  0.222  0.444  0.359-  55 2.37  58 2.37  54 2.37  41 2.60  38 2.60  37 2.60
  30  0.221  0.774  0.344-  59 2.32  55 2.32  56 2.32  47 2.58
  31  0.556  0.111  0.344-  60 2.31  57 2.31  59 2.31  48 2.63
  32  0.553  0.446  0.344-  57 2.32  58 2.32  61 2.32  49 2.58
  33  0.553  0.774  0.344-  59 2.32  58 2.32  62 2.32  50 2.58
  34  0.893  0.114  0.344-  60 2.32  54 2.32  62 2.32  51 2.58
  35  0.893  0.446  0.344-  60 2.32  55 2.32  61 2.32  52 2.58
  36  0.889  0.778  0.344-  62 2.31  56 2.31  61 2.31  53 2.62
  37  0.121  0.242  0.424-  46 2.35  51 2.35  54 2.58  29 2.60
  38  0.121  0.545  0.424-  52 2.35  47 2.35  55 2.58  29 2.60
  39  0.112  0.889  0.427-  53 2.32  47 2.35  46 2.35  56 2.57
  40  0.444  0.222  0.427-  48 2.31  46 2.31  49 2.31  57 2.60
  41  0.424  0.545  0.424-  50 2.35  49 2.35  58 2.58  29 2.60
  42  0.444  0.888  0.427-  48 2.31  50 2.31  47 2.31  59 2.60
  43  0.778  0.222  0.427-  48 2.31  51 2.31  52 2.31  60 2.60
  44  0.777  0.555  0.427-  53 2.32  49 2.35  52 2.35  61 2.57
  45  0.777  0.889  0.427-  53 2.32  50 2.35  51 2.35  62 2.57
  46  0.221  0.117  0.447-  40 2.31  37 2.35  39 2.35  28 2.58
  47  0.221  0.770  0.447-  42 2.31  38 2.35  39 2.35  30 2.58
  48  0.556  0.111  0.449-  43 2.31  42 2.31  40 2.31  31 2.63
  49  0.550  0.446  0.447-  40 2.31  41 2.35  44 2.35  32 2.58
  50  0.550  0.770  0.447-  42 2.31  41 2.35  45 2.35  33 2.58
  51  0.896  0.117  0.447-  43 2.31  37 2.35  45 2.35  34 2.58
  52  0.896  0.446  0.447-  43 2.31  38 2.35  44 2.35  35 2.58
  53  0.889  0.778  0.449-  45 2.32  39 2.32  44 2.32  36 2.62
  54  0.115  0.230  0.321-  28 2.32  34 2.32  29 2.37  37 2.58
  55  0.115  0.552  0.321-  35 2.32  30 2.32  29 2.37  38 2.58
  56  0.112  0.889  0.324-  36 2.31  30 2.32  28 2.32  39 2.57
  57  0.444  0.222  0.323-  31 2.31  28 2.32  32 2.32  40 2.60
  58  0.437  0.552  0.321-  32 2.32  33 2.32  29 2.37  41 2.58
  59  0.444  0.888  0.323-  31 2.31  33 2.32  30 2.32  42 2.60
  60  0.778  0.222  0.323-  31 2.31  34 2.32  35 2.32  43 2.60
  61  0.777  0.555  0.324-  36 2.31  35 2.32  32 2.32  44 2.57
  62  0.777  0.889  0.324-  36 2.31  33 2.32  34 2.32  45 2.57
 
  LATTYP: Found a hexagonal cell.
 ALAT       =    11.6564000000
 C/A-ratio  =     2.1447445180
  
  Lattice vectors:
  
 A1 = (  11.6564000000,   0.0000000000,   0.0000000000)
 A2 = (  -5.8282323800,  10.0948352900,   0.0000000000)
 A3 = (   0.0000000000,   0.0000000000,  25.0000000000)


Analysis of symmetry for initial positions (statically):
=====================================================================
 Subroutine PRICEL returns:
 Original cell was already a primitive cell.
 

 Routine SETGRP: Setting up the symmetry group for a 
 hexagonal supercell.


 Subroutine GETGRP returns: Found  6 space group operations
 (whereof  2 operations were pure point group operations)
 out of a pool of 24 trial point group operations.


The static configuration has the point symmetry C_1h.
 The point group associated with its full space group is C_3v.


Analysis of symmetry for dynamics (positions and initial velocities):
=====================================================================
 Subroutine PRICEL returns:
 Original cell was already a primitive cell.
 

 Routine SETGRP: Setting up the symmetry group for a 
 hexagonal supercell.


 Subroutine GETGRP returns: Found  6 space group operations
 (whereof  2 operations were pure point group operations)
 out of a pool of 24 trial point group operations.


The dynamic configuration has the point symmetry C_1h.
 The point group associated with its full space group is C_3v.


 Subroutine INISYM returns: Found  6 space group operations
 (whereof  2 operations are pure point group operations),
 and found     1 'primitive' translations


----------------------------------------------------------------------------------------

                                     Primitive cell                                     

  volume of cell :    2941.7360

  direct lattice vectors                    reciprocal lattice vectors
    11.656400000  0.000000000  0.000000000     0.085789781  0.049530553  0.000000000
    -5.828232380 10.094835290  0.000000000     0.000000000  0.099060556  0.000000000
     0.000000000  0.000000000 25.000000000     0.000000000  0.000000000  0.040000000

  length of vectors
    11.656400000 11.656499998 25.000000000     0.099061406  0.099060556  0.040000000

  position of ions in fractional coordinates (direct lattice)
     0.333488926  0.000078094  0.628471904
     0.333249453  0.333418043  0.628601832
     0.333248803  0.666498455  0.628602365
     0.666588885  0.000077502  0.628471377
     0.666589259  0.333177592  0.628471039
     0.666545059  0.666605736  0.627972080
     0.000060760  0.000121452  0.627972233
     0.000168963  0.333417761  0.628601670
     0.000060527  0.666606094  0.627972441
     0.221598602  0.110998893  0.686264976
     0.222222218  0.444444590  0.686714933
     0.221597925  0.777267521  0.686265217
     0.555556364  0.111111659  0.686593295
     0.555669030  0.445068239  0.686264845
     0.555668783  0.777267160  0.686265033
     0.889399812  0.110998096  0.686264751
     0.889399358  0.445067781  0.686264813
     0.888888205  0.777777627  0.686058504
     0.112052898  0.224104860  0.570423116
     0.112052691  0.554615029  0.570423299
     0.111569256  0.889118026  0.570855653
     0.444384427  0.222281770  0.571206726
     0.442561653  0.554614660  0.570423189
     0.444383822  0.888768670  0.571206907
     0.777898009  0.222281538  0.571206593
     0.777548968  0.555097442  0.570855371
     0.777548508  0.889117411  0.570855415
     0.220846122  0.113750368  0.344127503
     0.222222029  0.444444407  0.359240737
     0.220845055  0.773762768  0.344127818
     0.555555681  0.111111209  0.343663630
     0.552916104  0.445820813  0.344127925
     0.552916742  0.773762386  0.344127399
     0.892903539  0.113748893  0.344127976
     0.892903742  0.445820683  0.344127547
     0.888888401  0.777777595  0.344382823
     0.121235270  0.242468540  0.423778499
     0.121234414  0.545433739  0.423778521
     0.111766590  0.889217085  0.427163490
     0.444225897  0.222441939  0.427022444
     0.424196908  0.545432017  0.423779228
     0.444225493  0.888450580  0.427022240
     0.778216923  0.222441674  0.427022311
     0.777450444  0.554900249  0.427163296
     0.777449878  0.889216307  0.427163568
     0.220781712  0.116960306  0.447254151
     0.220781075  0.770487577  0.447254348
     0.555555559  0.111110295  0.448770534
     0.549705665  0.445884748  0.447253959
     0.549705136  0.770486430  0.447254125
     0.896179162  0.116959642  0.447254220
     0.896178991  0.445884771  0.447254331
     0.888888128  0.777777070  0.449366367
     0.114872469  0.229745009  0.320731176
     0.114872793  0.551795731  0.320731365
     0.111882122  0.889275234  0.324429979
     0.444224543  0.222443873  0.322965868
     0.436923008  0.551795162  0.320731039
     0.444223969  0.888447885  0.322966072
     0.778219959  0.222443452  0.322966009
     0.777392659  0.554785562  0.324430145
     0.777392655  0.889274298  0.324429779

  ion indices of the primitive-cell ions
   primitive index   ion index
                 1           1
                 2           2
                 3           3
                 4           4
                 5           5
                 6           6
                 7           7
                 8           8
                 9           9
                10          10
                11          11
                12          12
                13          13
                14          14
                15          15
                16          16
                17          17
                18          18
                19          19
                20          20
                21          21
                22          22
                23          23
                24          24
                25          25
                26          26
                27          27
                28          28
                29          29
                30          30
                31          31
                32          32
                33          33
                34          34
                35          35
                36          36
                37          37
                38          38
                39          39
                40          40
                41          41
                42          42
                43          43
                44          44
                45          45
                46          46
                47          47
                48          48
                49          49
                50          50
                51          51
                52          52
                53          53
                54          54
                55          55
                56          56
                57          57
                58          58
                59          59
                60          60
                61          61
                62          62

----------------------------------------------------------------------------------------

 
 
 KPOINTS: K-Spacing Value to Generate K-Mesh: 0.02

Automatic generation of k-mesh.
 Grid dimensions read from file:
 generate k-points for:    5    5    1

 Generating k-lattice:

  Cartesian coordinates                     Fractional coordinates (reciprocal lattice)
     0.017157956  0.009906111  0.000000000     0.200000000  0.000000000  0.000000000
     0.000000000  0.019812111  0.000000000     0.000000000  0.200000000  0.000000000
     0.000000000  0.000000000  0.040000000     0.000000000  0.000000000  1.000000000

  Length of vectors
     0.019812281  0.019812111  0.040000000

  Shift w.r.t. Gamma in fractional coordinates (k-lattice)
     0.000000000  0.000000000  0.000000000

 
 Subroutine IBZKPT returns following result:
 ===========================================
 
 Found      5 irreducible k-points:
 
 Following reciprocal coordinates:
            Coordinates               Weight
  0.000000  0.000000  0.000000      1.000000
  0.200000  0.000000  0.000000      6.000000
  0.400000  0.000000  0.000000      6.000000
  0.200000  0.200000  0.000000      6.000000
  0.400000  0.200000  0.000000      6.000000
 
 Following cartesian coordinates:
            Coordinates               Weight
  0.000000  0.000000  0.000000      1.000000
  0.017158  0.009906  0.000000      6.000000
  0.034316  0.019812  0.000000      6.000000
  0.017158  0.029718  0.000000      6.000000
  0.034316  0.039624  0.000000      6.000000
 


--------------------------------------------------------------------------------------------------------




 Dimension of arrays:
   k-points           NKPTS =      5   k-points in BZ     NKDIM =      5   number of bands    NBANDS=    332
   number of dos      NEDOS =   2001   number of ions     NIONS =     62
   non local maximal  LDIM  =      6   non local SUM 2l+1 LMDIM =     18
   total plane-waves  NPLWV = ******
   max r-space proj   IRMAX =      1   max aug-charges    IRDMAX= 179030
   dimension x,y,z NGX =    90 NGY =   90 NGZ =  192
   dimension x,y,z NGXF=   180 NGYF=  180 NGZF=  384
   support grid    NGXF=   360 NGYF=  360 NGZF=  768
   ions per type =               9  18  18  17
   NGX,Y,Z   is equivalent  to a cutoff of  12.84, 12.84, 12.77 a.u.
   NGXF,Y,Z  is equivalent  to a cutoff of  25.67, 25.67, 25.54 a.u.

 SYSTEM =  unknown system                          
 POSCAR =  cif2pos.py                              

 Startparameter for this run:
   NWRITE =      2    write-flag & timer
   PREC   = accura    normal or accurate (medium, high low for compatibility)
   ISTART =      0    job   : 0-new  1-cont  2-samecut
   ICHARG =      2    charge: 1-file 2-atom 10-const
   ISPIN  =      1    spin polarized calculation?
   LNONCOLLINEAR =      F non collinear calculations
   LSORBIT =      F    spin-orbit coupling
   INIWAV =      1    electr: 0-lowe 1-rand  2-diag
   LASPH  =      T    aspherical Exc in radial PAW
 Electronic Relaxation 1
   ENCUT  =  500.0 eV  36.75 Ry    6.06 a.u.  21.25 21.25 45.58*2*pi/ulx,y,z
   ENINI  =  500.0     initial cutoff
   ENAUG  =  575.9 eV  augmentation charge cutoff
   NELM   =     60;   NELMIN=  2; NELMDL=  0     # of ELM steps 
   EDIFF  = 0.1E-07   stopping-criterion for ELM
   LREAL  =      F    real-space projection
   NLSPLINE    = F    spline interpolate recip. space projectors
   LCOMPAT=      F    compatible to vasp.4.4
   GGA_COMPAT  = T    GGA compatible to vasp.4.4-vasp.4.6
   LMAXPAW     = -100 max onsite density
   LMAXMIX     =    2 max onsite mixed and CHGCAR
   VOSKOWN=      0    Vosko Wilk Nusair interpolation
   ROPT   =    0.00000   0.00000   0.00000   0.00000
 Ionic relaxation
   EDIFFG = 0.1E-06   stopping-criterion for IOM
   NSW    =      0    number of steps for IOM
   NBLOCK =      1;   KBLOCK =      1    inner block; outer block 
   IBRION =     -1    ionic relax: 0-MD 1-quasi-New 2-CG
   NFREE  =      0    steps in history (QN), initial steepest desc. (CG)
   ISIF   =      2    stress and relaxation
   IWAVPR =     10    prediction:  0-non 1-charg 2-wave 3-comb
   ISYM   =      2    0-nonsym 1-usesym 2-fastsym
   LCORR  =      T    Harris-Foulkes like correction to forces

   POTIM  = 0.5000    time-step for ionic-motion
   TEIN   =    0.0    initial temperature
   TEBEG  =    0.0;   TEEND  =   0.0 temperature during run
   SMASS  =  -3.00    Nose mass-parameter (am)
   estimated Nose-frequenzy (Omega)   =  0.10E-29 period in steps = 0.13E+47 mass=  -0.311E-26a.u.
   SCALEE = 1.0000    scale energy and forces
   NPACO  =    256;   APACO  = 10.0  distance and # of slots for P.C.
   PSTRESS=    0.0 pullay stress

  Mass of Ions in am
   POMASS = 112.41 35.45 65.39 32.07
  Ionic Valenz
   ZVAL   =  12.00  7.00 12.00  6.00
  Atomic Wigner-Seitz radii
   RWIGS  =  -1.00 -1.00 -1.00 -1.00
  virtual crystal weights 
   VCA    =   1.00  1.00  1.00  1.00
   NELECT =     552.0000    total number of electrons
   NUPDOWN=      -1.0000    fix difference up-down

 DOS related values:
   EMIN   =  10.00;   EMAX   =-10.00  energy-range for DOS
   EFERMI =   0.00;   METHOD = LEGACY      
   ISMEAR =     0;   SIGMA  =   0.05  broadening in eV -4-tet -1-fermi 0-gaus

 Electronic relaxation 2 (details)
   IALGO  =     38    algorithm
   LDIAG  =      T    sub-space diagonalisation (order eigenvalues)
   LSUBROT=      F    optimize rotation matrix (better conditioning)
   TURBO    =      0    0=normal 1=particle mesh
   IRESTART =      0    0=no restart 2=restart with 2 vectors
   NREBOOT  =      0    no. of reboots
   NMIN     =      0    reboot dimension
   EREF     =   0.00    reference energy to select bands
   IMIX   =      4    mixing-type and parameters
     AMIX     =   0.40;   BMIX     =  1.00
     AMIX_MAG =   1.60;   BMIX_MAG =  1.00
     AMIN     =   0.10
     WC   =   100.;   INIMIX=   1;  MIXPRE=   1;  MAXMIX= -45

 Intra band minimization:
   WEIMIN = 0.0000     energy-eigenvalue tresh-hold
   EBREAK =  0.75E-11  absolut break condition
   DEPER  =   0.30     relativ break condition  

   TIME   =   0.40     timestep for ELM

  volume/ion in A,a.u.               =      47.45       320.19
  Fermi-wavevector in a.u.,A,eV,Ry     =   0.937245  1.771137 11.951750  0.878429
  Thomas-Fermi vector in A             =   2.064337
 
 Write flags
   LWAVE        =      T    write WAVECAR
   LDOWNSAMPLE  =      F    k-point downsampling of WAVECAR
   LCHARG       =      T    write CHGCAR
   LVTOT        =      F    write LOCPOT, total local potential
   LVHAR        =      T    write LOCPOT, Hartree potential only
   LELF         =      F    write electronic localiz. function (ELF)
   LORBIT       =     11    0 simple, 1 ext, 2 COOP (PROOUT), +10 PAW based schemes


 Dipole corrections
   LMONO  =      F    monopole corrections only (constant potential shift)
   LDIPOL =      F    correct potential (dipole corrections)
   IDIPOL =      0    1-x, 2-y, 3-z, 4-all directions 
   EPSILON=  1.0000000 bulk dielectric constant

 Exchange correlation treatment:
   GGA     =    --    GGA type
   LEXCH   =     8    internal setting for exchange type
   LIBXC   =     F    Libxc                    
   VOSKOWN =     0    Vosko Wilk Nusair interpolation
   LHFCALC =     F    Hartree Fock is set to
   LHFONE  =     F    Hartree Fock one center treatment
   AEXX    =    0.0000 exact exchange contribution

 Linear response parameters
   LEPSILON=     F    determine dielectric tensor
   LRPA    =     F    only Hartree local field effects (RPA)
   LNABLA  =     F    use nabla operator in PAW spheres
   LVEL    =     F    velocity operator in full k-point grid
   CSHIFT  =0.1000    complex shift for real part using Kramers Kronig
   OMEGAMAX=  -1.0    maximum frequency
   DEG_THRESHOLD= 0.2000000E-02 threshold for treating states as degnerate
   RTIME   =   -0.100 relaxation time in fs
  (WPLASMAI=    0.000 imaginary part of plasma frequency in eV, 0.658/RTIME)
   DFIELD  = 0.0000000 0.0000000 0.0000000 field for delta impulse in time
 
  Optional k-point grid parameters
   LKPOINTS_OPT  =     F    use optional k-point grid
   KPOINTS_OPT_MODE=     1    mode for optional k-point grid
 
 Orbital magnetization related:
   ORBITALMAG=     F  switch on orbital magnetization
   LCHIMAG   =     F  perturbation theory with respect to B field
   DQ        =  0.001000  dq finite difference perturbation B field
   LLRAUG    =     F  two centre corrections for induced B field
   LBONE     =     F  B-component reconstruction in AE one-centre
   LVGVCALC  =     T  calculate vGv susceptibility
   LVGVAPPL  =     F  apply vGv susceptibility instead of pGv for G=0

 Random number generation:
   RANDOM_GENERATOR = DEFAULT
   PCG_SEED         = not used


--------------------------------------------------------------------------------------------------------


 Static calculation
 charge density and potential will be updated during run
 non-spin polarized calculation
 Variant of blocked Davidson
 Davidson routine will perform the subspace rotation
 perform sub-space diagonalisation
    after iterative eigenvector-optimisation
 modified Broyden-mixing scheme, WC =      100.0
 initial mixing is a Kerker type mixing with AMIX =  0.4000 and BMIX =      1.0000
 Hartree-type preconditioning will be used
 using additional bands           56
 reciprocal scheme for non local part
 use partial core corrections
 calculate Harris-corrections to forces 
   (improved forces if not selfconsistent)
 use gradient corrections 
 use of overlap-Matrix (Vanderbilt PP)
 Gauss-broadening in eV      SIGMA  =   0.05


--------------------------------------------------------------------------------------------------------


  energy-cutoff  :      500.00
  volume of cell :     2941.74
      direct lattice vectors                 reciprocal lattice vectors
    11.656400000  0.000000000  0.000000000     0.085789781  0.049530553  0.000000000
    -5.828232380 10.094835290  0.000000000     0.000000000  0.099060556  0.000000000
     0.000000000  0.000000000 25.000000000     0.000000000  0.000000000  0.040000000

  length of vectors
    11.656400000 11.656499998 25.000000000     0.099061406  0.099060556  0.040000000


 
 k-points in units of 2pi/SCALE and weight: K-Spacing Value to Generate K-Mesh: 0.02
   0.00000000  0.00000000  0.00000000       0.040
   0.01715796  0.00990611  0.00000000       0.240
   0.03431591  0.01981222  0.00000000       0.240
   0.01715796  0.02971822  0.00000000       0.240
   0.03431591  0.03962433  0.00000000       0.240
 
 k-points in reciprocal lattice and weights: K-Spacing Value to Generate K-Mesh: 0.02
   0.00000000  0.00000000  0.00000000       0.040
   0.20000000  0.00000000  0.00000000       0.240
   0.40000000  0.00000000  0.00000000       0.240
   0.20000000  0.20000000  0.00000000       0.240
   0.40000000  0.20000000  0.00000000       0.240
 
 position of ions in fractional coordinates (direct lattice) 
   0.33348893  0.00007809  0.62847190
   0.33324945  0.33341804  0.62860183
   0.33324880  0.66649845  0.62860237
   0.66658888  0.00007750  0.62847138
   0.66658926  0.33317759  0.62847104
   0.66654506  0.66660574  0.62797208
   0.00006076  0.00012145  0.62797223
   0.00016896  0.33341776  0.62860167
   0.00006053  0.66660609  0.62797244
   0.22159860  0.11099889  0.68626498
   0.22222222  0.44444459  0.68671493
   0.22159792  0.77726752  0.68626522
   0.55555636  0.11111166  0.68659329
   0.55566903  0.44506824  0.68626485
   0.55566878  0.77726716  0.68626503
   0.88939981  0.11099810  0.68626475
   0.88939936  0.44506778  0.68626481
   0.88888820  0.77777763  0.68605850
   0.11205290  0.22410486  0.57042312
   0.11205269  0.55461503  0.57042330
   0.11156926  0.88911803  0.57085565
   0.44438443  0.22228177  0.57120673
   0.44256165  0.55461466  0.57042319
   0.44438382  0.88876867  0.57120691
   0.77789801  0.22228154  0.57120659
   0.77754897  0.55509744  0.57085537
   0.77754851  0.88911741  0.57085541
   0.22084612  0.11375037  0.34412750
   0.22222203  0.44444441  0.35924074
   0.22084505  0.77376277  0.34412782
   0.55555568  0.11111121  0.34366363
   0.55291610  0.44582081  0.34412793
   0.55291674  0.77376239  0.34412740
   0.89290354  0.11374889  0.34412798
   0.89290374  0.44582068  0.34412755
   0.88888840  0.77777759  0.34438282
   0.12123527  0.24246854  0.42377850
   0.12123441  0.54543374  0.42377852
   0.11176659  0.88921709  0.42716349
   0.44422590  0.22244194  0.42702244
   0.42419691  0.54543202  0.42377923
   0.44422549  0.88845058  0.42702224
   0.77821692  0.22244167  0.42702231
   0.77745044  0.55490025  0.42716330
   0.77744988  0.88921631  0.42716357
   0.22078171  0.11696031  0.44725415
   0.22078107  0.77048758  0.44725435
   0.55555556  0.11111030  0.44877053
   0.54970567  0.44588475  0.44725396
   0.54970514  0.77048643  0.44725412
   0.89617916  0.11695964  0.44725422
   0.89617899  0.44588477  0.44725433
   0.88888813  0.77777707  0.44936637
   0.11487247  0.22974501  0.32073118
   0.11487279  0.55179573  0.32073137
   0.11188212  0.88927523  0.32442998
   0.44422454  0.22244387  0.32296587
   0.43692301  0.55179516  0.32073104
   0.44422397  0.88844788  0.32296607
   0.77821996  0.22244345  0.32296601
   0.77739266  0.55478556  0.32443014
   0.77739265  0.88927430  0.32442978
 
 position of ions in cartesian coordinates  (Angst):
   3.88682517  0.00078834 15.71179761
   1.94125109  3.36580023 15.71504580
  -0.00002652  6.72819212 15.71505913
   7.76957498  0.00078237 15.71178444
   5.82819461  3.36337291 15.71177597
   3.88438269  6.72927511 15.69930200
   0.00000039  0.00122604 15.69930583
  -1.94126669  3.36579738 15.71504176
  -3.88442969  6.72927873 15.69931102
   1.93611460  1.12051555 17.15662441
  -0.00001529  4.48659493 17.16787332
  -1.94706168  7.84638760 17.15663042
   5.82820264  1.12165389 17.16483237
   3.88313936  4.49289057 17.15662114
   1.94700397  7.84638396 17.15662583
   9.72027727  1.12050749 17.15661878
   7.77323622  4.49288595 17.15662033
   5.82816772  7.85153704 17.15146259
  -0.00000180  2.26230165 14.26057790
  -1.92629429  5.59874736 14.26058249
  -3.88149059  8.97550003 14.27139134
   3.88441282  2.24389786 14.28016814
   1.92625253  5.59874365 14.26057972
  -0.00003476  8.97197334 14.28017267
   7.77198189  2.24389552 14.28016483
   5.82818490  5.60361725 14.27138429
   3.88143354  8.97549382 14.27138537
   1.91130716  1.14829123  8.60318757
  -0.00001643  4.48659308  8.98101843
  -1.93541092  7.81100769  8.60319545
   5.82819729  1.12164935  8.59159076
   3.84666397  4.50048768  8.60319813
   1.93535172  7.81100384  8.60318497
   9.74508583  1.14827634  8.60319940
   7.80969664  4.50048637  8.60318868
   5.82817020  7.85153671  8.60957057
   0.00000380  2.44767998 10.59446248
  -1.76575775  5.50606376 10.59446303
  -3.87976773  8.97650001 10.67908724
   3.88163143  2.24551474 10.67556109
   1.76570430  5.50604637 10.59448071
  -0.00002641  8.96876227 10.67555601
   7.77476597  2.24551206 10.67555777
   5.82818575  5.60162662 10.67908240
   3.87970748  8.97649216 10.67908921
   1.89184811  1.18069502 11.18135378
  -1.91706813  7.77794518 11.18135869
   5.82820119  1.12164013 11.21926336
   3.80886919  4.50113308 11.18134898
   1.91700899  7.77793361 11.18135312
   9.76455482  1.18068832 11.18135549
   7.84750073  4.50113332 11.18135827
   5.82817007  7.85153142 11.23415917
  -0.00000785  2.31923802  8.01827940
  -1.87699052  5.57028702  8.01828413
  -3.87875994  8.97708702  8.11074947
   3.88160438  2.24553426  8.07414670
   1.87695891  5.57028128  8.01827596
  -0.00002845  8.96873506  8.07415179
   7.77479101  2.24553000  8.07415022
   5.82818061  5.60046887  8.11075362
   3.87870248  8.97707757  8.11074448
 


--------------------------------------------------------------------------------------------------------


 k-point   1 :   0.0000 0.0000 0.0000  plane waves:   74803
 k-point   2 :   0.2000 0.0000 0.0000  plane waves:   74695
 k-point   3 :   0.4000 0.0000 0.0000  plane waves:   74663
 k-point   4 :   0.2000 0.2000 0.0000  plane waves:   74689
 k-point   5 :   0.4000 0.2000 0.0000  plane waves:   74676

 maximum and minimum number of plane-waves per node :      6270     6199

 maximum number of plane-waves:     74803
 maximum index in each direction: 
   IXMAX=   21   IYMAX=   21   IZMAX=   45
   IXMIN=  -21   IYMIN=  -21   IZMIN=  -45


 parallel 3D FFT for wavefunctions:
    minimum data exchange during FFTs selected (reduces bandwidth)
 parallel 3D FFT for charge:
    minimum data exchange during FFTs selected (reduces bandwidth)


 total amount of memory used by VASP MPI-rank0   263262. kBytes
=======================================================================

   base      :      30000. kBytes
   nonl-proj :      24099. kBytes
   fftplans  :      79971. kBytes
   grid      :      45515. kBytes
   one-center:         93. kBytes
   wavefun   :      83584. kBytes
 
     INWAV:  cpu time      0.0000: real time      0.0001
 Broyden mixing: mesh for mixing (old mesh)
   NGX = 43   NGY = 43   NGZ = 91
  (NGX  =180   NGY  =180   NGZ  =384)
  gives a total of 168259 points

 initial charge density was supplied:
 charge density of overlapping atoms calculated
 number of electron     552.0000000 magnetization 
 keeping initial charge density in first step


--------------------------------------------------------------------------------------------------------


 Maximum index for augmentation-charges         7532 (set IRDMAX)


--------------------------------------------------------------------------------------------------------


 First call to EWALD:  gamma=   0.124
 Maximum number of real-space cells 4x 4x 2
 Maximum number of reciprocal cells 2x 2x 4

    FEWALD:  cpu time      0.0040: real time      0.0041


--------------------------------------- Ionic step        1  -------------------------------------------




--------------------------------------- Iteration      1(   1)  ---------------------------------------


    POTLOK:  cpu time      0.4108: real time      0.4143
    SETDIJ:  cpu time      0.5760: real time      0.5799
     EDDAV:  cpu time     52.0132: real time     52.4698
       DOS:  cpu time      0.0079: real time      0.0079
    --------------------------------------------
      LOOP:  cpu time     53.0079: real time     53.4720

 eigenvalue-minimisations  :  3336
 total energy-change (2. order) : 0.4559167E+04  (-0.2278916E+05)
 number of electron     552.0000000 magnetization 
 augmentation part      552.0000000 magnetization 

 Free energy of the ion-electron system (eV)
  ---------------------------------------------------
  alpha Z        PSCENC =       940.95539792
  Ewald energy   TEWEN  =    115619.64186983
  -Hartree energ DENC   =   -166276.36477850
  -exchange      EXHF   =         0.00000000
  -V(xc)+E(xc)   XCENC  =      1641.73395132
  PAW double counting   =     46516.48950506   -49356.44532682
  entropy T*S    EENTRO =        -0.01702411
  eigenvalues    EBANDS =       274.65891931
  atomic energy  EATOM  =     55198.51496693
  Solvation  Ediel_sol  =         0.00000000
  ---------------------------------------------------
  free energy    TOTEN  =      4559.16748094 eV

  energy without entropy =     4559.18450505  energy(sigma->0) =     4559.17599299


--------------------------------------------------------------------------------------------------------




--------------------------------------- Iteration      1(   2)  ---------------------------------------


     EDDAV:  cpu time     56.6199: real time     57.1046
       DOS:  cpu time      0.0098: real time      0.0098
    --------------------------------------------
      LOOP:  cpu time     56.6296: real time     57.1144

 eigenvalue-minimisations  :  3792
 total energy-change (2. order) :-0.4047196E+04  (-0.3859706E+04)
 number of electron     552.0000000 magnetization 
 augmentation part      552.0000000 magnetization 

 Free energy of the ion-electron system (eV)
  ---------------------------------------------------
  alpha Z        PSCENC =       940.95539792
  Ewald energy   TEWEN  =    115619.64186983
  -Hartree energ DENC   =   -166276.36477850
  -exchange      EXHF   =         0.00000000
  -V(xc)+E(xc)   XCENC  =      1641.73395132
  PAW double counting   =     46516.48950506   -49356.44532682
  entropy T*S    EENTRO =        -0.00000000
  eigenvalues    EBANDS =     -3772.55382016
  atomic energy  EATOM  =     55198.51496693
  Solvation  Ediel_sol  =         0.00000000
  ---------------------------------------------------
  free energy    TOTEN  =       511.97176558 eV

  energy without entropy =      511.97176558  energy(sigma->0) =      511.97176558


--------------------------------------------------------------------------------------------------------




--------------------------------------- Iteration      1(   3)  ---------------------------------------


     EDDAV:  cpu time     59.6445: real time     60.1740
       DOS:  cpu time      0.0103: real time      0.0104
    --------------------------------------------
      LOOP:  cpu time     59.6549: real time     60.1844

 eigenvalue-minimisations  :  3816
 total energy-change (2. order) :-0.6702117E+03  (-0.6646305E+03)
 number of electron     552.0000000 magnetization 
 augmentation part      552.0000000 magnetization 

 Free energy of the ion-electron system (eV)
  ---------------------------------------------------
  alpha Z        PSCENC =       940.95539792
  Ewald energy   TEWEN  =    115619.64186983
  -Hartree energ DENC   =   -166276.36477850
  -exchange      EXHF   =         0.00000000
  -V(xc)+E(xc)   XCENC  =      1641.73395132
  PAW double counting   =     46516.48950506   -49356.44532682
  entropy T*S    EENTRO =        -0.00000000
  eigenvalues    EBANDS =     -4442.76555411
  atomic energy  EATOM  =     55198.51496693
  Solvation  Ediel_sol  =         0.00000000
  ---------------------------------------------------
  free energy    TOTEN  =      -158.23996837 eV

  energy without entropy =     -158.23996837  energy(sigma->0) =     -158.23996837


--------------------------------------------------------------------------------------------------------




--------------------------------------- Iteration      1(   4)  ---------------------------------------


     EDDAV:  cpu time     56.4446: real time     56.9309
       DOS:  cpu time      0.0072: real time      0.0072
    --------------------------------------------
      LOOP:  cpu time     56.4518: real time     56.9382

 eigenvalue-minimisations  :  3736
 total energy-change (2. order) :-0.3570385E+02  (-0.3544573E+02)
 number of electron     552.0000000 magnetization 
 augmentation part      552.0000000 magnetization 

 Free energy of the ion-electron system (eV)
  ---------------------------------------------------
  alpha Z        PSCENC =       940.95539792
  Ewald energy   TEWEN  =    115619.64186983
  -Hartree energ DENC   =   -166276.36477850
  -exchange      EXHF   =         0.00000000
  -V(xc)+E(xc)   XCENC  =      1641.73395132
  PAW double counting   =     46516.48950506   -49356.44532682
  entropy T*S    EENTRO =        -0.00000000
  eigenvalues    EBANDS =     -4478.46940820
  atomic energy  EATOM  =     55198.51496693
  Solvation  Ediel_sol  =         0.00000000
  ---------------------------------------------------
  free energy    TOTEN  =      -193.94382246 eV

  energy without entropy =     -193.94382246  energy(sigma->0) =     -193.94382246


--------------------------------------------------------------------------------------------------------




--------------------------------------- Iteration      1(   5)  ---------------------------------------


     EDDAV:  cpu time     57.8746: real time     58.3748
       DOS:  cpu time      0.0089: real time      0.0090
    CHARGE:  cpu time      3.1018: real time      3.1308
    MIXING:  cpu time      0.0224: real time      0.0226
    --------------------------------------------
      LOOP:  cpu time     61.0078: real time     61.5372

 eigenvalue-minimisations  :  3840
 total energy-change (2. order) :-0.1053535E+01  (-0.1052213E+01)
 number of electron     552.0000010 magnetization 
 augmentation part      163.6940064 magnetization 

 Broyden mixing:
  rms(total) = 0.37075E+01    rms(broyden)= 0.37075E+01
  rms(prec ) = 0.37868E+01
  weight for this iteration     100.00

 Free energy of the ion-electron system (eV)
  ---------------------------------------------------
  alpha Z        PSCENC =       940.95539792
  Ewald energy   TEWEN  =    115619.64186983
  -Hartree energ DENC   =   -166276.36477850
  -exchange      EXHF   =         0.00000000
  -V(xc)+E(xc)   XCENC  =      1641.73395132
  PAW double counting   =     46516.48950506   -49356.44532682
  entropy T*S    EENTRO =        -0.00000000
  eigenvalues    EBANDS =     -4479.52294308
  atomic energy  EATOM  =     55198.51496693
  Solvation  Ediel_sol  =         0.00000000
  ---------------------------------------------------
  free energy    TOTEN  =      -194.99735734 eV

  energy without entropy =     -194.99735734  energy(sigma->0) =     -194.99735734


--------------------------------------------------------------------------------------------------------




--------------------------------------- Iteration      1(   6)  ---------------------------------------


    POTLOK:  cpu time      0.4544: real time      0.4583
    SETDIJ:  cpu time      0.6209: real time      0.6253
     EDDAV:  cpu time     67.3765: real time     67.9668
       DOS:  cpu time      0.0081: real time      0.0081
    CHARGE:  cpu time      2.9967: real time      3.0251
    MIXING:  cpu time      0.0241: real time      0.0242
    --------------------------------------------
      LOOP:  cpu time     71.4806: real time     72.1079

 eigenvalue-minimisations  :  4608
 total energy-change (2. order) : 0.1463010E+02  (-0.2805801E+01)
 number of electron     552.0000010 magnetization 
 augmentation part      166.2010588 magnetization 

 Broyden mixing:
  rms(total) = 0.29797E+01    rms(broyden)= 0.29797E+01
  rms(prec ) = 0.29949E+01
  weight for this iteration     100.00

 eigenvalues of (default mixing * dielectric matrix)
  average eigenvalue GAMMA=   2.2228
  2.2228

 Free energy of the ion-electron system (eV)
  ---------------------------------------------------
  alpha Z        PSCENC =       940.95539792
  Ewald energy   TEWEN  =    115619.64186983
  -Hartree energ DENC   =   -166093.13800610
  -exchange      EXHF   =         0.00000000
  -V(xc)+E(xc)   XCENC  =      1645.46880264
  PAW double counting   =     49752.22485222   -52535.76829240
  entropy T*S    EENTRO =        -0.00000000
  eigenvalues    EBANDS =     -4708.26685280
  atomic energy  EATOM  =     55198.51496693
  Solvation  Ediel_sol  =         0.00000000
  ---------------------------------------------------
  free energy    TOTEN  =      -180.36726176 eV

  energy without entropy =     -180.36726176  energy(sigma->0) =     -180.36726176


--------------------------------------------------------------------------------------------------------




--------------------------------------- Iteration      1(   7)  ---------------------------------------


    POTLOK:  cpu time      0.4538: real time      0.4575
    SETDIJ:  cpu time      0.6353: real time      0.6395
     EDDAV:  cpu time     55.7141: real time     56.2006
       DOS:  cpu time      0.0103: real time      0.0103
    CHARGE:  cpu time      3.1319: real time      3.1609
    MIXING:  cpu time      0.0249: real time      0.0251
    --------------------------------------------
      LOOP:  cpu time     59.9703: real time     60.4939

 eigenvalue-minimisations  :  3640
 total energy-change (2. order) :-0.7794276E+00  (-0.3632764E+01)
 number of electron     552.0000011 magnetization 
 augmentation part      166.8797321 magnetization 

 Broyden mixing:
  rms(total) = 0.11655E+01    rms(broyden)= 0.11655E+01
  rms(prec ) = 0.11809E+01
  weight for this iteration     100.00

 eigenvalues of (default mixing * dielectric matrix)
  average eigenvalue GAMMA=   1.7303
  1.1010  2.3595

 Free energy of the ion-electron system (eV)
  ---------------------------------------------------
  alpha Z        PSCENC =       940.95539792
  Ewald energy   TEWEN  =    115619.64186983
  -Hartree energ DENC   =   -166107.98868254
  -exchange      EXHF   =         0.00000000
  -V(xc)+E(xc)   XCENC  =      1654.04703114
  PAW double counting   =     55871.11381918   -58701.94490858
  entropy T*S    EENTRO =        -0.00000000
  eigenvalues    EBANDS =     -4655.48618320
  atomic energy  EATOM  =     55198.51496693
  Solvation  Ediel_sol  =         0.00000000
  ---------------------------------------------------
  free energy    TOTEN  =      -181.14668932 eV

  energy without entropy =     -181.14668932  energy(sigma->0) =     -181.14668932


--------------------------------------------------------------------------------------------------------




--------------------------------------- Iteration      1(   8)  ---------------------------------------


    POTLOK:  cpu time      0.4558: real time      0.4595
    SETDIJ:  cpu time      0.6310: real time      0.6353
     EDDAV:  cpu time     61.8110: real time     62.3502
       DOS:  cpu time      0.0106: real time      0.0107
    CHARGE:  cpu time      3.0756: real time      3.1037
    MIXING:  cpu time      0.0224: real time      0.0226
    --------------------------------------------
      LOOP:  cpu time     66.0063: real time     66.5819

 eigenvalue-minimisations  :  4120
 total energy-change (2. order) : 0.7528923E+00  (-0.4724039E+00)
 number of electron     552.0000011 magnetization 
 augmentation part      166.3166789 magnetization 

 Broyden mixing:
  rms(total) = 0.30012E+00    rms(broyden)= 0.30012E+00
  rms(prec ) = 0.30414E+00
  weight for this iteration     100.00

 eigenvalues of (default mixing * dielectric matrix)
  average eigenvalue GAMMA=   1.4858
  2.2952  1.0812  1.0812

 Free energy of the ion-electron system (eV)
  ---------------------------------------------------
  alpha Z        PSCENC =       940.95539792
  Ewald energy   TEWEN  =    115619.64186983
  -Hartree energ DENC   =   -166101.54156872
  -exchange      EXHF   =         0.00000000
  -V(xc)+E(xc)   XCENC  =      1651.61121820
  PAW double counting   =     57742.00337840   -60580.76095666
  entropy T*S    EENTRO =        -0.00000000
  eigenvalues    EBANDS =     -4650.81810291
  atomic energy  EATOM  =     55198.51496693
  Solvation  Ediel_sol  =         0.00000000
  ---------------------------------------------------
  free energy    TOTEN  =      -180.39379701 eV

  energy without entropy =     -180.39379701  energy(sigma->0) =     -180.39379701


--------------------------------------------------------------------------------------------------------




--------------------------------------- Iteration      1(   9)  ---------------------------------------


    POTLOK:  cpu time      0.4387: real time      0.4422
    SETDIJ:  cpu time      0.6345: real time      0.6389
     EDDAV:  cpu time     62.1860: real time     62.7342
       DOS:  cpu time      0.0088: real time      0.0089
    CHARGE:  cpu time      3.0552: real time      3.0837
    MIXING:  cpu time      0.0242: real time      0.0244
    --------------------------------------------
      LOOP:  cpu time     66.3473: real time     66.9322

 eigenvalue-minimisations  :  4160
 total energy-change (2. order) : 0.4335249E-02  (-0.5795947E-01)
 number of electron     552.0000011 magnetization 
 augmentation part      166.3285103 magnetization 

 Broyden mixing:
  rms(total) = 0.99159E-01    rms(broyden)= 0.99158E-01
  rms(prec ) = 0.10162E+00
  weight for this iteration     100.00

 eigenvalues of (default mixing * dielectric matrix)
  average eigenvalue GAMMA=   1.3896
  2.3116  1.1651  1.1651  0.9165

 Free energy of the ion-electron system (eV)
  ---------------------------------------------------
  alpha Z        PSCENC =       940.95539792
  Ewald energy   TEWEN  =    115619.64186983
  -Hartree energ DENC   =   -166078.25378870
  -exchange      EXHF   =         0.00000000
  -V(xc)+E(xc)   XCENC  =      1651.01706271
  PAW double counting   =     58038.01773850   -60870.71994601
  entropy T*S    EENTRO =        -0.00000000
  eigenvalues    EBANDS =     -4679.56276295
  atomic energy  EATOM  =     55198.51496693
  Solvation  Ediel_sol  =         0.00000000
  ---------------------------------------------------
  free energy    TOTEN  =      -180.38946176 eV

  energy without entropy =     -180.38946176  energy(sigma->0) =     -180.38946176


--------------------------------------------------------------------------------------------------------




--------------------------------------- Iteration      1(  10)  ---------------------------------------


    POTLOK:  cpu time      0.4543: real time      0.4583
    SETDIJ:  cpu time      0.6289: real time      0.6335
     EDDAV:  cpu time     59.3149: real time     59.8394
       DOS:  cpu time      0.0088: real time      0.0089
    CHARGE:  cpu time      3.0097: real time      3.0377
    MIXING:  cpu time      0.0273: real time      0.0275
    --------------------------------------------
      LOOP:  cpu time     63.4440: real time     64.0052

 eigenvalue-minimisations  :  3920
 total energy-change (2. order) :-0.5590284E-02  (-0.9911521E-02)
 number of electron     552.0000011 magnetization 
 augmentation part      166.3672988 magnetization 

 Broyden mixing:
  rms(total) = 0.71070E-01    rms(broyden)= 0.71070E-01
  rms(prec ) = 0.72435E-01
  weight for this iteration     100.00

 eigenvalues of (default mixing * dielectric matrix)
  average eigenvalue GAMMA=   1.2899
  2.1384  1.4476  1.0485  1.0485  0.7665

 Free energy of the ion-electron system (eV)
  ---------------------------------------------------
  alpha Z        PSCENC =       940.95539792
  Ewald energy   TEWEN  =    115619.64186983
  -Hartree energ DENC   =   -166069.58164385
  -exchange      EXHF   =         0.00000000
  -V(xc)+E(xc)   XCENC  =      1650.79486439
  PAW double counting   =     58114.49711686   -60945.03107660
  entropy T*S    EENTRO =        -0.00000000
  eigenvalues    EBANDS =     -4690.18654753
  atomic energy  EATOM  =     55198.51496693
  Solvation  Ediel_sol  =         0.00000000
  ---------------------------------------------------
  free energy    TOTEN  =      -180.39505205 eV

  energy without entropy =     -180.39505205  energy(sigma->0) =     -180.39505205


--------------------------------------------------------------------------------------------------------




--------------------------------------- Iteration      1(  11)  ---------------------------------------


    POTLOK:  cpu time      0.4447: real time      0.4483
    SETDIJ:  cpu time      0.6266: real time      0.6309
     EDDAV:  cpu time     62.3666: real time     62.9138
       DOS:  cpu time      0.0087: real time      0.0087
    CHARGE:  cpu time      3.0940: real time      3.1229
    MIXING:  cpu time      0.0284: real time      0.0286
    --------------------------------------------
      LOOP:  cpu time     66.5690: real time     67.1532

 eigenvalue-minimisations  :  4176
 total energy-change (2. order) :-0.2616879E-02  (-0.2196169E-02)
 number of electron     552.0000011 magnetization 
 augmentation part      166.3598627 magnetization 

 Broyden mixing:
  rms(total) = 0.50815E-01    rms(broyden)= 0.50815E-01
  rms(prec ) = 0.52139E-01
  weight for this iteration     100.00

 eigenvalues of (default mixing * dielectric matrix)
  average eigenvalue GAMMA=   1.3624
  2.0033  2.0033  1.2505  1.2505  0.9766  0.6903

 Free energy of the ion-electron system (eV)
  ---------------------------------------------------
  alpha Z        PSCENC =       940.95539792
  Ewald energy   TEWEN  =    115619.64186983
  -Hartree energ DENC   =   -166068.82923232
  -exchange      EXHF   =         0.00000000
  -V(xc)+E(xc)   XCENC  =      1650.73972130
  PAW double counting   =     58045.52472772   -60875.96032321
  entropy T*S    EENTRO =        -0.00000000
  eigenvalues    EBANDS =     -4690.98479710
  atomic energy  EATOM  =     55198.51496693
  Solvation  Ediel_sol  =         0.00000000
  ---------------------------------------------------
  free energy    TOTEN  =      -180.39766892 eV

  energy without entropy =     -180.39766892  energy(sigma->0) =     -180.39766892


--------------------------------------------------------------------------------------------------------




--------------------------------------- Iteration      1(  12)  ---------------------------------------


    POTLOK:  cpu time      0.4477: real time      0.4516
    SETDIJ:  cpu time      0.6363: real time      0.6408
     EDDAV:  cpu time     61.9554: real time     62.5013
       DOS:  cpu time      0.0136: real time      0.0137
    CHARGE:  cpu time      3.1482: real time      3.1805
    MIXING:  cpu time      0.0209: real time      0.0211
    --------------------------------------------
      LOOP:  cpu time     66.2220: real time     66.8089

 eigenvalue-minimisations  :  4136
 total energy-change (2. order) :-0.1758288E-02  (-0.5435653E-03)
 number of electron     552.0000011 magnetization 
 augmentation part      166.3584583 magnetization 

 Broyden mixing:
  rms(total) = 0.22130E-01    rms(broyden)= 0.22130E-01
  rms(prec ) = 0.23595E-01
  weight for this iteration     100.00

 eigenvalues of (default mixing * dielectric matrix)
  average eigenvalue GAMMA=   1.4423
  2.3920  2.2941  1.6489  1.1200  1.1200  0.8915  0.6296

 Free energy of the ion-electron system (eV)
  ---------------------------------------------------
  alpha Z        PSCENC =       940.95539792
  Ewald energy   TEWEN  =    115619.64186983
  -Hartree energ DENC   =   -166067.31392025
  -exchange      EXHF   =         0.00000000
  -V(xc)+E(xc)   XCENC  =      1650.76570127
  PAW double counting   =     57993.94006131   -60824.37254523
  entropy T*S    EENTRO =        -0.00000000
  eigenvalues    EBANDS =     -4692.53095901
  atomic energy  EATOM  =     55198.51496693
  Solvation  Ediel_sol  =         0.00000000
  ---------------------------------------------------
  free energy    TOTEN  =      -180.39942721 eV

  energy without entropy =     -180.39942721  energy(sigma->0) =     -180.39942721


--------------------------------------------------------------------------------------------------------




--------------------------------------- Iteration      1(  13)  ---------------------------------------


    POTLOK:  cpu time      0.4680: real time      0.4721
    SETDIJ:  cpu time      0.6315: real time      0.6363
     EDDAV:  cpu time     54.1146: real time     54.5786
       DOS:  cpu time      0.0033: real time      0.0033
    CHARGE:  cpu time      2.8668: real time      2.8922
    MIXING:  cpu time      0.0138: real time      0.0139
    --------------------------------------------
      LOOP:  cpu time     58.0980: real time     58.5963

 eigenvalue-minimisations  :  4024
 total energy-change (2. order) :-0.1247401E-02  (-0.4142019E-03)
 number of electron     552.0000011 magnetization 
 augmentation part      166.3615310 magnetization 

 Broyden mixing:
  rms(total) = 0.75331E-02    rms(broyden)= 0.75329E-02
  rms(prec ) = 0.87238E-02
  weight for this iteration     100.00

 eigenvalues of (default mixing * dielectric matrix)
  average eigenvalue GAMMA=   1.4125
  2.4899  2.1469  1.8156  1.0409  1.0409  1.0654  1.0654  0.6346

 Free energy of the ion-electron system (eV)
  ---------------------------------------------------
  alpha Z        PSCENC =       940.95539792
  Ewald energy   TEWEN  =    115619.64186983
  -Hartree energ DENC   =   -166064.48996260
  -exchange      EXHF   =         0.00000000
  -V(xc)+E(xc)   XCENC  =      1650.79480984
  PAW double counting   =     58016.49290459   -60846.85134464
  entropy T*S    EENTRO =        -0.00000000
  eigenvalues    EBANDS =     -4695.45931648
  atomic energy  EATOM  =     55198.51496693
  Solvation  Ediel_sol  =         0.00000000
  ---------------------------------------------------
  free energy    TOTEN  =      -180.40067461 eV

  energy without entropy =     -180.40067461  energy(sigma->0) =     -180.40067461


--------------------------------------------------------------------------------------------------------




--------------------------------------- Iteration      1(  14)  ---------------------------------------


    POTLOK:  cpu time      0.4271: real time      0.4305
    SETDIJ:  cpu time      0.5917: real time      0.5956
     EDDAV:  cpu time     51.5676: real time     51.9862
       DOS:  cpu time      0.0028: real time      0.0028
    CHARGE:  cpu time      2.2011: real time      2.2198
    MIXING:  cpu time      0.0140: real time      0.0142
    --------------------------------------------
      LOOP:  cpu time     54.8042: real time     55.2490

 eigenvalue-minimisations  :  3872
 total energy-change (2. order) :-0.7564880E-03  (-0.2059733E-03)
 number of electron     552.0000011 magnetization 
 augmentation part      166.3620119 magnetization 

 Broyden mixing:
  rms(total) = 0.69026E-02    rms(broyden)= 0.69024E-02
  rms(prec ) = 0.76798E-02
  weight for this iteration     100.00

 eigenvalues of (default mixing * dielectric matrix)
  average eigenvalue GAMMA=   1.3932
  2.8940  2.3131  1.5215  1.5215  1.1013  1.1013  0.9439  0.6291  0.5130

 Free energy of the ion-electron system (eV)
  ---------------------------------------------------
  alpha Z        PSCENC =       940.95539792
  Ewald energy   TEWEN  =    115619.64186983
  -Hartree energ DENC   =   -166063.53079809
  -exchange      EXHF   =         0.00000000
  -V(xc)+E(xc)   XCENC  =      1650.78721050
  PAW double counting   =     58014.52862626   -60844.88239808
  entropy T*S    EENTRO =        -0.00000000
  eigenvalues    EBANDS =     -4696.41630637
  atomic energy  EATOM  =     55198.51496693
  Solvation  Ediel_sol  =         0.00000000
  ---------------------------------------------------
  free energy    TOTEN  =      -180.40143110 eV

  energy without entropy =     -180.40143110  energy(sigma->0) =     -180.40143110


--------------------------------------------------------------------------------------------------------




--------------------------------------- Iteration      1(  15)  ---------------------------------------


    POTLOK:  cpu time      0.3809: real time      0.3838
    SETDIJ:  cpu time      0.5663: real time      0.5699
     EDDAV:  cpu time     57.7177: real time     58.2182
       DOS:  cpu time      0.0063: real time      0.0063
    CHARGE:  cpu time      3.0717: real time      3.1008
    MIXING:  cpu time      0.0257: real time      0.0259
    --------------------------------------------
      LOOP:  cpu time     61.7686: real time     62.3050

 eigenvalue-minimisations  :  3984
 total energy-change (2. order) :-0.6222964E-03  (-0.2525137E-04)
 number of electron     552.0000011 magnetization 
 augmentation part      166.3613557 magnetization 

 Broyden mixing:
  rms(total) = 0.30882E-02    rms(broyden)= 0.30878E-02
  rms(prec ) = 0.39529E-02
  weight for this iteration     100.00

 eigenvalues of (default mixing * dielectric matrix)
  average eigenvalue GAMMA=   1.4450
  3.5491  2.3405  1.6750  1.6750  1.1366  1.1366  0.8687  0.7270  0.6707  0.6707

 Free energy of the ion-electron system (eV)
  ---------------------------------------------------
  alpha Z        PSCENC =       940.95539792
  Ewald energy   TEWEN  =    115619.64186983
  -Hartree energ DENC   =   -166062.62864141
  -exchange      EXHF   =         0.00000000
  -V(xc)+E(xc)   XCENC  =      1650.78344850
  PAW double counting   =     58006.43932730   -60836.79594419
  entropy T*S    EENTRO =        -0.00000000
  eigenvalues    EBANDS =     -4697.31247827
  atomic energy  EATOM  =     55198.51496693
  Solvation  Ediel_sol  =         0.00000000
  ---------------------------------------------------
[...]
  augment   361.41288   361.43039   361.55204    -0.00237    -0.00031    -0.00016
  Kinetic  6047.73969  6050.78761  6202.40479    -4.87730    -0.05070    -0.15268
  Fock        0.00000     0.00000     0.00000     0.00000     0.00000     0.00000
  vdW       -12.44189   -12.44205    -6.57001     0.00003    -0.00001    -0.00000
  -------------------------------------------------------------------------------------
  Total      -8.25653    -8.25669    -0.96199     0.00003     0.00000     0.00000
  in kB      -4.49681    -4.49689    -0.52394     0.00001     0.00000     0.00000
  external pressure =       -3.17 kB  Pullay stress =        0.00 kB


 VOLUME and BASIS-vectors are now :
 -----------------------------------------------------------------------------
  energy-cutoff  :      500.00
  volume of cell :     2941.74
      direct lattice vectors                 reciprocal lattice vectors
    11.656400000  0.000000000  0.000000000     0.085789781  0.049530553  0.000000000
    -5.828232380 10.094835290  0.000000000     0.000000000  0.099060556  0.000000000
     0.000000000  0.000000000 25.000000000     0.000000000  0.000000000  0.040000000

  length of vectors
    11.656400000 11.656499998 25.000000000     0.099061406  0.099060556  0.040000000


 FORCES acting on ions
    electron-ion (+dipol)            ewald-force                    non-local-force                 convergence-correction
 -----------------------------------------------------------------------------------------------
   0.195E+01 0.112E+01 -.151E+04   -.192E+01 -.111E+01 0.151E+04   -.203E-01 -.117E-01 -.194E-01   -.104E-05 -.581E-06 0.264E-05
   0.524E+01 -.303E+01 -.150E+04   -.523E+01 0.302E+01 0.150E+04   -.436E-02 0.252E-02 -.492E-01   0.112E-06 -.638E-07 0.157E-05
   0.102E-02 0.605E+01 -.150E+04   0.454E-03 -.604E+01 0.150E+04   0.161E-07 -.503E-02 -.492E-01   0.813E-08 0.117E-06 0.156E-05
   -.195E+01 0.112E+01 -.151E+04   0.192E+01 -.111E+01 0.151E+04   0.203E-01 -.117E-01 -.194E-01   0.105E-05 -.583E-06 0.263E-05
   -.124E-02 -.225E+01 -.151E+04   -.495E-03 0.222E+01 0.151E+04   -.752E-07 0.235E-01 -.194E-01   0.658E-08 0.120E-05 0.264E-05
   0.411E+01 0.237E+01 -.150E+04   -.400E+01 -.231E+01 0.150E+04   -.114E+00 -.655E-01 -.189E+00   -.539E-06 -.318E-06 -.108E-05
   0.619E-04 -.475E+01 -.150E+04   -.720E-04 0.462E+01 0.150E+04   -.420E-06 0.131E+00 -.189E+00   -.146E-07 0.637E-06 -.110E-05
   -.524E+01 -.302E+01 -.150E+04   0.523E+01 0.302E+01 0.150E+04   0.436E-02 0.252E-02 -.492E-01   -.117E-06 -.787E-07 0.153E-05
   -.411E+01 0.237E+01 -.150E+04   0.400E+01 -.231E+01 0.150E+04   0.114E+00 -.655E-01 -.189E+00   0.529E-06 -.329E-06 -.110E-05
   0.771E+00 0.410E-01 -.135E+04   -.766E+00 -.738E-01 0.135E+04   -.319E-02 0.211E-01 -.300E+01   0.319E-06 -.253E-06 -.114E-04
   0.514E-03 -.314E-02 -.135E+04   0.582E-03 0.547E-03 0.135E+04   0.000E+00 0.867E-18 -.300E+01   0.766E-08 -.678E-08 -.123E-04
   0.437E+00 0.632E+00 -.135E+04   -.448E+00 -.624E+00 0.135E+04   0.167E-01 -.133E-01 -.300E+01   -.640E-07 0.410E-06 -.114E-04
   -.693E-02 -.823E-02 -.135E+04   0.953E-03 0.197E-02 0.136E+04   0.130E-17 0.000E+00 -.298E+01   0.109E-08 0.661E-08 -.105E-04
   0.333E+00 -.693E+00 -.135E+04   -.316E+00 0.702E+00 0.135E+04   -.199E-01 -.779E-02 -.300E+01   0.384E-06 -.149E-06 -.114E-04
   -.431E+00 0.636E+00 -.135E+04   0.450E+00 -.624E+00 0.135E+04   -.167E-01 -.133E-01 -.300E+01   0.727E-07 0.407E-06 -.114E-04
   -.770E+00 0.489E-01 -.135E+04   0.766E+00 -.736E-01 0.135E+04   0.319E-02 0.211E-01 -.300E+01   -.321E-06 -.262E-06 -.114E-04
   -.339E+00 -.688E+00 -.135E+04   0.318E+00 0.702E+00 0.135E+04   0.199E-01 -.779E-02 -.300E+01   -.392E-06 -.154E-06 -.114E-04
   0.703E-02 -.843E-03 -.135E+04   0.184E-03 0.172E-02 0.135E+04   0.130E-17 0.000E+00 -.298E+01   -.773E-08 0.695E-09 -.132E-04
   -.491E-02 -.888E+01 -.393E+03   -.637E-03 0.881E+01 0.390E+03   -.239E-06 0.744E-01 0.302E+01   -.148E-07 -.820E-06 0.745E-05
   -.769E+01 0.443E+01 -.393E+03   0.763E+01 -.441E+01 0.390E+03   0.644E-01 -.372E-01 0.302E+01   -.717E-06 0.390E-06 0.744E-05
   -.106E+01 -.610E+00 -.407E+03   0.107E+01 0.615E+00 0.404E+03   -.108E-01 -.625E-02 0.311E+01   -.692E-08 0.345E-08 0.687E-05
   0.449E+01 -.259E+01 -.409E+03   -.450E+01 0.260E+01 0.406E+03   0.752E-02 -.434E-02 0.312E+01   -.353E-07 0.288E-07 0.953E-05
   0.770E+01 0.444E+01 -.393E+03   -.763E+01 -.441E+01 0.390E+03   -.644E-01 -.372E-01 0.302E+01   0.710E-06 0.401E-06 0.746E-05
   0.674E-02 0.519E+01 -.409E+03   -.885E-03 -.520E+01 0.406E+03   -.278E-07 0.868E-02 0.312E+01   0.729E-08 -.372E-07 0.953E-05
   -.450E+01 -.259E+01 -.409E+03   0.450E+01 0.260E+01 0.406E+03   -.752E-02 -.434E-02 0.312E+01   0.492E-07 0.282E-07 0.953E-05
   -.263E-02 0.122E+01 -.407E+03   -.336E-03 -.123E+01 0.404E+03   -.401E-07 0.125E-01 0.311E+01   0.748E-08 -.127E-07 0.688E-05
   0.105E+01 -.604E+00 -.407E+03   -.107E+01 0.616E+00 0.404E+03   0.108E-01 -.625E-02 0.311E+01   -.604E-09 0.178E-07 0.689E-05
   0.174E+01 0.179E+02 0.191E+04   -.184E+01 -.175E+02 -.191E+04   0.104E+00 -.407E+00 0.167E+01   -.949E-05 0.316E-05 -.396E-05
   0.286E-02 0.326E-02 0.168E+04   -.354E-02 -.315E-02 -.167E+04   0.173E-17 0.347E-17 -.160E+01   -.399E-07 -.897E-08 -.226E-05
   0.164E+02 -.744E+01 0.191E+04   -.161E+02 0.714E+01 -.191E+04   -.301E+00 0.293E+00 0.167E+01   -.201E-05 -.981E-05 -.397E-05
   0.113E-02 0.362E-02 0.192E+04   -.111E-02 -.356E-02 -.192E+04   0.000E+00 -.347E-17 0.198E+01   0.102E-07 0.349E-08 -.697E-05
   -.146E+02 -.104E+02 0.191E+04   0.142E+02 0.103E+02 -.191E+04   0.405E+00 0.114E+00 0.167E+01   -.748E-05 0.662E-05 -.395E-05
   -.164E+02 -.743E+01 0.191E+04   0.161E+02 0.714E+01 -.191E+04   0.301E+00 0.293E+00 0.167E+01   0.198E-05 -.979E-05 -.396E-05
   -.174E+01 0.179E+02 0.191E+04   0.184E+01 -.175E+02 -.191E+04   -.104E+00 -.407E+00 0.167E+01   0.948E-05 0.320E-05 -.397E-05
   0.146E+02 -.104E+02 0.191E+04   -.142E+02 0.103E+02 -.191E+04   -.405E+00 0.114E+00 0.167E+01   0.751E-05 0.663E-05 -.396E-05
   0.140E-02 0.326E-02 0.191E+04   0.685E-03 -.242E-02 -.191E+04   -.867E-17 0.000E+00 0.187E+01   0.325E-07 0.857E-08 -.100E-04
   0.162E-03 -.336E+02 0.229E+03   -.331E-02 0.330E+02 -.229E+03   -.200E-05 0.623E+00 -.764E-01   -.308E-07 0.380E-05 -.302E-05
   -.291E+02 0.168E+02 0.229E+03   0.285E+02 -.165E+02 -.229E+03   0.540E+00 -.312E+00 -.764E-01   0.326E-05 -.192E-05 -.303E-05
   -.922E+01 -.533E+01 0.268E+03   0.838E+01 0.484E+01 -.267E+03   0.833E+00 0.481E+00 -.104E+01   0.451E-05 0.259E-05 0.189E-05
   -.408E+01 0.235E+01 0.272E+03   0.377E+01 -.218E+01 -.271E+03   0.305E+00 -.176E+00 -.161E+01   -.292E-05 0.168E-05 0.130E-05
   0.291E+02 0.168E+02 0.229E+03   -.285E+02 -.165E+02 -.229E+03   -.540E+00 -.312E+00 -.764E-01   -.330E-05 -.191E-05 -.303E-05
   -.149E-02 -.471E+01 0.272E+03   0.131E-02 0.436E+01 -.271E+03   -.113E-05 0.352E+00 -.161E+01   -.995E-08 -.338E-05 0.129E-05
   0.408E+01 0.235E+01 0.272E+03   -.377E+01 -.217E+01 -.271E+03   -.305E+00 -.176E+00 -.161E+01   0.295E-05 0.171E-05 0.130E-05
   -.873E-03 0.106E+02 0.268E+03   0.124E-02 -.967E+01 -.267E+03   0.308E-05 -.962E+00 -.104E+01   0.375E-07 -.522E-05 0.190E-05
   0.922E+01 -.533E+01 0.268E+03   -.838E+01 0.484E+01 -.267E+03   -.833E+00 0.481E+00 -.104E+01   -.450E-05 0.263E-05 0.190E-05
   0.190E+02 0.332E+01 -.925E+02   -.190E+02 -.336E+01 0.963E+02   0.286E-01 0.356E-01 -.385E+01   -.296E-06 0.468E-06 0.360E-06
   0.124E+02 0.148E+02 -.925E+02   -.124E+02 -.148E+02 0.963E+02   0.452E-01 0.696E-02 -.385E+01   0.255E-06 -.495E-06 0.355E-06
   -.193E-02 0.620E-02 -.959E+02   -.718E-03 -.202E-02 0.999E+02   0.347E-17 0.000E+00 -.406E+01   0.664E-08 0.638E-08 -.105E-06
   0.664E+01 -.181E+02 -.925E+02   -.662E+01 0.182E+02 0.963E+02   -.166E-01 -.426E-01 -.385E+01   -.545E-06 0.982E-08 0.366E-06
   -.124E+02 0.148E+02 -.925E+02   0.124E+02 -.148E+02 0.963E+02   -.452E-01 0.696E-02 -.385E+01   -.267E-06 -.480E-06 0.361E-06
   -.190E+02 0.332E+01 -.925E+02   0.190E+02 -.335E+01 0.963E+02   -.286E-01 0.356E-01 -.385E+01   0.289E-06 0.486E-06 0.365E-06
   -.664E+01 -.181E+02 -.925E+02   0.662E+01 0.182E+02 0.963E+02   0.166E-01 -.426E-01 -.385E+01   0.564E-06 0.116E-07 0.361E-06
   0.297E-02 0.590E-02 -.100E+03   0.453E-04 -.247E-02 0.104E+03   0.173E-16 0.000E+00 -.398E+01   0.121E-07 0.187E-08 0.881E-06
   0.112E-02 -.103E+02 0.122E+04   -.162E-02 0.111E+02 -.123E+04   0.261E-05 -.812E+00 0.489E+01   -.132E-07 0.319E-06 -.984E-06
   -.889E+01 0.513E+01 0.122E+04   0.960E+01 -.554E+01 -.123E+04   -.704E+00 0.406E+00 0.489E+01   0.269E-06 -.166E-06 -.984E-06
   -.339E+01 -.196E+01 0.118E+04   0.347E+01 0.201E+01 -.118E+04   -.872E-01 -.503E-01 0.361E+01   -.184E-05 -.107E-05 -.179E-05
   -.320E+01 0.183E+01 0.119E+04   0.312E+01 -.180E+01 -.119E+04   0.632E-01 -.365E-01 0.380E+01   0.911E-06 -.533E-06 -.916E-06
   0.889E+01 0.513E+01 0.122E+04   -.960E+01 -.554E+01 -.123E+04   0.704E+00 0.406E+00 0.489E+01   -.290E-06 -.163E-06 -.981E-06
   -.278E-03 -.369E+01 0.119E+04   -.150E-03 0.361E+01 -.119E+04   -.234E-06 0.730E-01 0.380E+01   -.694E-08 0.105E-05 -.921E-06
   0.319E+01 0.184E+01 0.119E+04   -.312E+01 -.180E+01 -.119E+04   -.632E-01 -.365E-01 0.380E+01   -.898E-06 -.517E-06 -.920E-06
   0.832E-03 0.391E+01 0.118E+04   0.273E-03 -.401E+01 -.118E+04   -.323E-06 0.101E+00 0.361E+01   0.203E-07 0.213E-05 -.179E-05
   0.339E+01 -.196E+01 0.118E+04   -.347E+01 0.201E+01 -.118E+04   0.872E-01 -.503E-01 0.361E+01   0.185E-05 -.105E-05 -.179E-05
 -----------------------------------------------------------------------------------------------
   -.160E-02 -.554E-01 -.987E+01   -.586E-13 0.109E-12 0.159E-11   -.153E-15 0.111E-15 0.987E+01   0.314E-08 -.219E-09 -.741E-04
 
 
 POSITION                                       TOTAL-FORCE (eV/Angst)
 -----------------------------------------------------------------------------------
      3.88683      0.00079     15.71180        -0.000494     -0.000285      0.000979
      1.94125      3.36580     15.71505         0.002878     -0.001661      0.001939
     -0.00003      6.72819     15.71506        -0.000000      0.003323      0.001939
      7.76957      0.00078     15.71178         0.000494     -0.000285      0.000979
      5.82819      3.36337     15.71178        -0.000000      0.000570      0.000979
      3.88438      6.72928     15.69930         0.000355      0.000205     -0.007628
      0.00000      0.00123     15.69931         0.000000     -0.000410     -0.007628
     -1.94127      3.36580     15.71504        -0.002878     -0.001661      0.001939
     -3.88443      6.72928     15.69931        -0.000355      0.000205     -0.007628
      1.93611      1.12052     17.15662        -0.002057     -0.001673     -0.002507
     -0.00002      4.48659     17.16787        -0.000000      0.000000     -0.002197
     -1.94706      7.84639     17.15663        -0.002477     -0.000945     -0.002507
      5.82820      1.12165     17.16483        -0.000000      0.000000      0.002195
      3.88314      4.49289     17.15662         0.000421      0.002618     -0.002507
      1.94700      7.84638     17.15663         0.002478     -0.000945     -0.002507
      9.72028      1.12051     17.15662         0.002057     -0.001673     -0.002507
      7.77324      4.49289     17.15662        -0.000421      0.002618     -0.002507
      5.82817      7.85154     17.15146        -0.000000     -0.000000     -0.009629
     -0.00000      2.26230     14.26058        -0.000000      0.003880     -0.002137
     -1.92629      5.59875     14.26058         0.003360     -0.001940     -0.002137
     -3.88149      8.97550     14.27139         0.003370      0.001946     -0.002613
      3.88441      2.24390     14.28017        -0.000335      0.000193      0.001448
      1.92625      5.59874     14.26058        -0.003360     -0.001940     -0.002137
     -0.00003      8.97197     14.28017         0.000000     -0.000387      0.001448
      7.77198      2.24390     14.28016         0.000335      0.000193      0.001448
      5.82818      5.60362     14.27138         0.000000     -0.003892     -0.002613
      3.88143      8.97549     14.27139        -0.003370      0.001946     -0.002613
      1.91131      1.14829      8.60319         0.002854     -0.000878      0.000073
     -0.00002      4.48659      8.98102        -0.000000     -0.000000      0.017222
     -1.93541      7.81101      8.60320         0.000667      0.002910      0.000073
      5.82820      1.12165      8.59159        -0.000000     -0.000000      0.012668
      3.84666      4.50049      8.60320         0.002187     -0.002033      0.000073
      1.93535      7.81100      8.60318        -0.000667      0.002910      0.000073
      9.74509      1.14828      8.60320        -0.002854     -0.000878      0.000073
      7.80970      4.50049      8.60319        -0.002187     -0.002033      0.000073
      5.82817      7.85154      8.60957        -0.000000     -0.000000      0.018600
      0.00000      2.44768     10.59446         0.000000     -0.010424     -0.000869
     -1.76576      5.50606     10.59446        -0.009027      0.005212     -0.000869
     -3.87977      8.97650     10.67909        -0.013703     -0.007911      0.009722
      3.88163      2.24551     10.67556         0.004148     -0.002395     -0.005355
      1.76570      5.50605     10.59448         0.009027      0.005212     -0.000869
     -0.00003      8.96876     10.67556        -0.000000      0.004789     -0.005355
      7.77477      2.24551     10.67556        -0.004148     -0.002395     -0.005355
      5.82819      5.60163     10.67908        -0.000000      0.015823      0.009722
      3.87971      8.97649     10.67909         0.013703     -0.007911      0.009722
      1.89185      1.18070     11.18135         0.004980     -0.005318      0.001147
     -1.91707      7.77795     11.18136        -0.002115      0.006972      0.001147
      5.82820      1.12164     11.21926        -0.000000     -0.000000     -0.007929
      3.80887      4.50113     11.18135         0.007095     -0.001654      0.001147
      1.91701      7.77793     11.18135         0.002115      0.006972      0.001147
      9.76455      1.18069     11.18136        -0.004980     -0.005318      0.001147
      7.84750      4.50113     11.18136        -0.007095     -0.001654      0.001147
      5.82817      7.85153     11.23416        -0.000000     -0.000000     -0.000387
     -0.00001      2.31924      8.01828         0.000000     -0.001120      0.015669
     -1.87699      5.57029      8.01828        -0.000970      0.000560      0.015669
     -3.87876      8.97709      8.11075        -0.000724     -0.000418     -0.011534
      3.88160      2.24553      8.07415        -0.004439      0.002563     -0.007228
      1.87696      5.57028      8.01828         0.000970      0.000560      0.015669
     -0.00003      8.96874      8.07415         0.000000     -0.005126     -0.007228
      7.77479      2.24553      8.07415         0.004439      0.002563     -0.007228
      5.82818      5.60047      8.11075        -0.000000      0.000836     -0.011534
      3.87870      8.97708      8.11074         0.000724     -0.000418     -0.011534
 -----------------------------------------------------------------------------------
    total drift:                               -0.001596     -0.055435     -0.001896


--------------------------------------------------------------------------------------------------------



  FREE ENERGIE OF THE ION-ELECTRON SYSTEM (eV)
  ---------------------------------------------------
  free  energy   TOTEN  =      -190.84151100 eV

  energy  without entropy=     -190.84151100  energy(sigma->0) =     -190.84151100
 


--------------------------------------------------------------------------------------------------------


    POTLOK:  cpu time      1.0648: real time      1.0728


--------------------------------------------------------------------------------------------------------


 writing wavefunctions
     LOOP+:  cpu time   2195.6119: real time   2214.9654
    4ORBIT:  cpu time      0.0000: real time      0.0000



 total charge

# of ion       s       p       d       tot
------------------------------------------
    1        0.324   0.227   9.618  10.170
    2        0.325   0.227   9.618  10.170
    3        0.325   0.227   9.618  10.170
    4        0.324   0.227   9.618  10.170
    5        0.324   0.227   9.618  10.170
    6        0.324   0.226   9.618  10.167
    7        0.324   0.226   9.618  10.167
    8        0.325   0.227   9.618  10.170
    9        0.324   0.226   9.618  10.167
   10        1.603   3.503   0.000   5.106
   11        1.603   3.503   0.000   5.106
   12        1.603   3.503   0.000   5.106
   13        1.603   3.503   0.000   5.106
   14        1.603   3.503   0.000   5.106
   15        1.603   3.503   0.000   5.106
   16        1.603   3.503   0.000   5.106
   17        1.603   3.503   0.000   5.106
   18        1.603   3.503   0.000   5.106
   19        1.604   3.504   0.000   5.108
   20        1.604   3.504   0.000   5.108
   21        1.604   3.504   0.000   5.108
   22        1.604   3.504   0.000   5.109
   23        1.604   3.504   0.000   5.108
   24        1.604   3.504   0.000   5.109
   25        1.604   3.504   0.000   5.109
   26        1.604   3.504   0.000   5.108
   27        1.604   3.504   0.000   5.108
   28        0.515   0.456   9.804  10.774
   29        0.540   0.504   9.756  10.800
   30        0.515   0.456   9.804  10.774
   31        0.516   0.456   9.804  10.777
   32        0.515   0.456   9.804  10.774
   33        0.515   0.456   9.804  10.774
   34        0.515   0.456   9.804  10.774
   35        0.515   0.456   9.804  10.774
   36        0.518   0.459   9.804  10.781
   37        0.520   0.382   9.783  10.684
   38        0.520   0.382   9.783  10.684
   39        0.506   0.432   9.802  10.741
   40        0.516   0.457   9.804  10.777
   41        0.520   0.382   9.783  10.684
   42        0.516   0.457   9.804  10.777
   43        0.516   0.457   9.804  10.777
   44        0.506   0.432   9.802  10.741
   45        0.506   0.432   9.802  10.741
   46        1.328   2.398   0.000   3.726
   47        1.328   2.398   0.000   3.726
   48        1.326   2.409   0.000   3.735
   49        1.328   2.398   0.000   3.726
   50        1.328   2.398   0.000   3.726
   51        1.328   2.398   0.000   3.726
   52        1.328   2.398   0.000   3.726
   53        1.327   2.408   0.000   3.735
   54        1.335   2.381   0.000   3.716
   55        1.335   2.381   0.000   3.716
   56        1.325   2.412   0.000   3.736
   57        1.325   2.410   0.000   3.735
   58        1.335   2.381   0.000   3.716
   59        1.325   2.410   0.000   3.735
   60        1.325   2.410   0.000   3.735
   61        1.325   2.412   0.000   3.736
   62        1.325   2.412   0.000   3.736
--------------------------------------------------
tot         63.645 113.882 262.920 440.447
 

 total amount of memory used by VASP MPI-rank0   263262. kBytes
=======================================================================

   base      :      30000. kBytes
   nonl-proj :      24099. kBytes
   fftplans  :      79971. kBytes
   grid      :      45515. kBytes
   one-center:         93. kBytes
   wavefun   :      83584. kBytes
 
  
  
 General timing and accounting informations for this job:
 ========================================================
  
                  Total CPU time used (sec):     2239.393
                            User time (sec):     2226.230
                          System time (sec):       13.163
                         Elapsed time (sec):     2259.633
  
                   Maximum memory used (kb):      595012.
                   Average memory used (kb):          N/A
  
                          Minor page faults:       223189
                          Major page faults:           22
                 Voluntary context switches:          978
