 vasp.6.1.2 22Jul20 (build Aug 13 2020 05:42:33) complex                        
  
 executed on             LinuxIFC date 2025.05.05  13:03:59
 running on   32 total cores
 distrk:  each k-point on   32 cores,    1 groups
 distr:  one band on NCORE=   1 cores,   32 groups


--------------------------------------------------------------------------------------------------------


 INCAR:
 POTCAR:    PAW_PBE S 06Sep2000                   
 POTCAR:    PAW_PBE Zn 06Sep2000                  
 -----------------------------------------------------------------------------
|                                                                             |
|           W    W    AA    RRRRR   N    N  II  N    N   GGGG   !!!           |
|           W    W   A  A   R    R  NN   N  II  NN   N  G    G  !!!           |
|           W    W  A    A  R    R  N N  N  II  N N  N  G       !!!           |
|           W WW W  AAAAAA  RRRRR   N  N N  II  N  N N  G  GGG   !            |
|           WW  WW  A    A  R   R   N   NN  II  N   NN  G    G                |
|           W    W  A    A  R    R  N    N  II  N    N   GGGG   !!!           |
|                                                                             |
|     For optimal performance we recommend to set                             |
|       NCORE = 4 - approx SQRT(number of cores).                             |
|     NCORE specifies how many cores store one orbital (NPAR=cpu/NCORE).      |
|     This setting can greatly improve the performance of VASP for DFT.       |
|     The default, NCORE=1 might be grossly inefficient on modern             |
|     multi-core architectures or massively parallel machines. Do your        |
|     own testing!!!!                                                         |
|     Unfortunately you need to use the default for GW and RPA                |
|     calculations (for HF NCORE is supported but not extensively tested      |
|     yet).                                                                   |
|                                                                             |
 -----------------------------------------------------------------------------

 POTCAR:    PAW_PBE S 06Sep2000                   
   SHA256 =  0fc7481fb0695f01bdc6462160264c5c84044ae9ec85a907d398b887a2bc3132 S/POTCAR              
   COPYR  = (c) Copyright 06Sep2000 Georg Kresse                                                    
   COPYR  = This file is part of the software VASP. Any use, copying, and all other rights are regul
   COPYR  = If you do not have a valid VASP license, you may not use, copy or distribute this file. 
   VRHFIN =S : s2p4                                                                                 
   LEXCH  = PE                                                                                      
   EATOM  =   276.8230 eV,   20.3459 Ry                                                             
                                                                                                    
   TITEL  = PAW_PBE S 06Sep2000                                                                     
   LULTRA =        F    use ultrasoft PP ?                                                          
   IUNSCR =        1    unscreen: 0-lin 1-nonlin 2-no                                               
   RPACOR =    1.500    partial core radius                                                         
   POMASS =   32.066; ZVAL   =    6.000    mass and valenz                                          
   RCORE  =    1.900    outmost cutoff radius                                                       
   RWIGS  =    2.200; RWIGS  =    1.164    wigner-seitz radius (au A)                               
   ENMAX  =  258.689; ENMIN  =  194.016 eV                                                          
   ICORE  =        2    local potential                                                             
   LCOR   =        T    correct aug charges                                                         
   LPAW   =        T    paw PP                                                                      
   EAUG   =  335.092                                                                                
   DEXC   =    0.000                                                                                
   RMAX   =    1.942    core radius for proj-oper                                                   
   RAUG   =    1.300    factor for augmentation sphere                                              
   RDEP   =    1.954    radius for radial grids                                                     
   RDEPT  =    1.744    core radius for aug-charge                                                  
                                                                                                    
   Atomic configuration                                                                             
    6 entries                                                                                       
     n  l   j            E        occ.                                                              
     1  0  0.50     -2405.8406   2.0000                                                             
     2  0  0.50      -211.7007   2.0000                                                             
     2  1  1.50      -156.4958   6.0000                                                             
     3  0  0.50       -17.2562   2.0000                                                             
     3  1  0.50        -7.0085   4.0000                                                             
     3  2  1.50        -6.8029   0.0000                                                             
   Description                                                                                      
     l       E           TYP  RCUT    TYP  RCUT                                                     
     0    -17.2561641     23  1.900                                                                 
     0    -15.8743224     23  1.900                                                                 
     1     -7.0085400     23  1.900                                                                 
     1     -2.7779785     23  1.900                                                                 
     2     -6.8029130     23  1.900                                                                 
  local pseudopotential read in
  partial core-charges read in
  partial kinetic energy density read in
  atomic valenz-charges read in
  non local Contribution for L=           0  read in
    real space projection operators read in
  non local Contribution for L=           0  read in
    real space projection operators read in
  non local Contribution for L=           1  read in
    real space projection operators read in
  non local Contribution for L=           1  read in
    real space projection operators read in
    PAW grid and wavefunctions read in
 
   number of l-projection  operators is LMAX  =           4
   number of lm-projection operators is LMMAX =           8
 
 POTCAR:    PAW_PBE Zn 06Sep2000                  
   SHA256 =  501fddbd8274dd8e9725d4f3de27861d7f1e553a7e18441bc79fed8f346e7f23 Zn/POTCAR             
   COPYR  = (c) Copyright 06Sep2000 Georg Kresse                                                    
   COPYR  = This file is part of the software VASP. Any use, copying, and all other rights are regul
   COPYR  = If you do not have a valid VASP license, you may not use, copy or distribute this file. 
   VRHFIN =Zn: d10 p2                                                                               
   LEXCH  = PE                                                                                      
   EATOM  =  1748.8345 eV,  128.5357 Ry                                                             
                                                                                                    
   TITEL  = PAW_PBE Zn 06Sep2000                                                                    
   LULTRA =        F    use ultrasoft PP ?                                                          
   IUNSCR =        1    unscreen: 0-lin 1-nonlin 2-no                                               
   RPACOR =    2.000    partial core radius                                                         
   POMASS =   65.390; ZVAL   =   12.000    mass and valenz                                          
   RCORE  =    2.300    outmost cutoff radius                                                       
   RWIGS  =    2.400; RWIGS  =    1.270    wigner-seitz radius (au A)                               
   ENMAX  =  276.723; ENMIN  =  207.542 eV                                                          
   RCLOC  =    1.828    cutoff for local pot                                                        
   LCOR   =        T    correct aug charges                                                         
   LPAW   =        T    paw PP                                                                      
   EAUG   =  575.892                                                                                
   DEXC   =    0.000                                                                                
   RMAX   =    2.347    core radius for proj-oper                                                   
   RAUG   =    1.300    factor for augmentation sphere                                              
   RDEP   =    2.324    radius for radial grids                                                     
   RDEPT  =    1.788    core radius for aug-charge                                                  
                                                                                                    
   Atomic configuration                                                                             
    9 entries                                                                                       
     n  l   j            E        occ.                                                              
     1  0  0.50     -9524.6913   2.0000                                                             
     2  0  0.50     -1158.1882   2.0000                                                             
     2  1  1.50     -1003.8506   6.0000                                                             
     3  0  0.50      -129.2194   2.0000                                                             
     3  1  1.50       -83.3890   6.0000                                                             
     3  2  2.50       -10.1410  10.0000                                                             
     4  0  0.50        -5.9785   2.0000                                                             
     4  1  0.50        -4.0817   0.0000                                                             
     4  3  2.50        -1.3606   0.0000                                                             
   Description                                                                                      
     l       E           TYP  RCUT    TYP  RCUT                                                     
     2    -10.1410010     23  2.300                                                                 
     2    -11.5015836     23  2.300                                                                 
     0     -5.9785163     23  2.300                                                                 
     0      1.1858015     23  2.300                                                                 
     1     -2.7211652     23  2.300                                                                 
     1     13.2444212     23  2.300                                                                 
  local pseudopotential read in
  partial core-charges read in
  partial kinetic energy density read in
  atomic valenz-charges read in
  non local Contribution for L=           2  read in
    real space projection operators read in
  non local Contribution for L=           2  read in
    real space projection operators read in
  non local Contribution for L=           0  read in
    real space projection operators read in
  non local Contribution for L=           0  read in
    real space projection operators read in
  non local Contribution for L=           1  read in
    real space projection operators read in
  non local Contribution for L=           1  read in
    real space projection operators read in
    PAW grid and wavefunctions read in
 
   number of l-projection  operators is LMAX  =           6
   number of lm-projection operators is LMMAX =          18
 
  PAW_PBE S 06Sep2000                   :
 energy of atom  1       EATOM= -276.8230
 kinetic energy error for atom=    0.0020 (will be added to EATOM!!)
  PAW_PBE Zn 06Sep2000                  :
 energy of atom  2       EATOM=-1748.8345
 kinetic energy error for atom=    0.0029 (will be added to EATOM!!)
 
 
 POSCAR: S2Zn2
  positions in direct lattice
  velocities in cartesian coordinates
 exchange correlation table for  LEXCH =        8
   RHO(1)=    0.500       N(1)  =     2000
   RHO(2)=  100.500       N(2)  =     4000
 


--------------------------------------------------------------------------------------------------------


 ion  position               nearest neighbor table
   1  0.333  0.667  0.417-   4 2.31   4 2.31   4 2.31   3 2.60
   2  0.667  0.333  0.583-   3 2.31   3 2.31   3 2.31   4 2.60
   3  0.333  0.667  0.554-   2 2.31   2 2.31   2 2.31   1 2.60   4 3.04   4 3.04   4 3.04
   4  0.667  0.333  0.446-   1 2.31   1 2.31   1 2.31   2 2.60   3 3.04   3 3.04   3 3.04
 
  LATTYP: Found a hexagonal cell.
 ALAT       =     3.8896802898
 C/A-ratio  =     4.8476479360
  
  Lattice vectors:
  
 A1 = (   3.8896802898,   0.0000000000,   0.0000000000)
 A2 = (  -1.9448401449,   3.3685619435,   0.0000000000)
 A3 = (   0.0000000000,   0.0000000000,  18.8558006287)


Analysis of symmetry for initial positions (statically):
=====================================================================
 Subroutine PRICEL returns:
 Original cell was already a primitive cell.
 

 Routine SETGRP: Setting up the symmetry group for a 
 hexagonal supercell.


 Subroutine GETGRP returns: Found 12 space group operations
 (whereof 12 operations were pure point group operations)
 out of a pool of 24 trial point group operations.


The static configuration has the point symmetry D_3d.


Analysis of symmetry for dynamics (positions and initial velocities):
=====================================================================
 Subroutine PRICEL returns:
 Original cell was already a primitive cell.
 

 Routine SETGRP: Setting up the symmetry group for a 
 hexagonal supercell.


 Subroutine GETGRP returns: Found 12 space group operations
 (whereof 12 operations were pure point group operations)
 out of a pool of 24 trial point group operations.


The dynamic configuration has the point symmetry D_3d.


 Subroutine INISYM returns: Found 12 space group operations
 (whereof 12 operations are pure point group operations),
 and found     1 'primitive' translations


----------------------------------------------------------------------------------------

                                     Primitive cell                                     

  volume of cell :     247.0606

  direct lattice vectors                    reciprocal lattice vectors
     3.889680290  0.000000000  0.000000000     0.257090538  0.148431292  0.000000000
    -1.944840145  3.368561944  0.000000000     0.000000000  0.296862583  0.000000000
     0.000000000  0.000000000 18.855800629     0.000000000  0.000000000  0.053034078

  length of vectors
     3.889680290  3.889680290 18.855800629     0.296862583  0.296862583  0.053034078

  position of ions in fractional coordinates (direct lattice)
     0.333333343  0.666666686  0.416500804
     0.666666657  0.333333314  0.583499196
     0.333333343  0.666666686  0.554333520
     0.666666657  0.333333314  0.445666480

  ion indices of the primitive-cell ions
   primitive index   ion index
                 1           1
                 2           2
                 3           3
                 4           4

----------------------------------------------------------------------------------------

 
 
 KPOINTS: K-Spacing Value to Generate K-Mesh: 0.02

Automatic generation of k-mesh.
Space group operators:
 irot       det(A)        alpha          n_x          n_y          n_z        tau_x        tau_y        tau_z
    1     1.000000     0.000000     1.000000     0.000000     0.000000     0.000000     0.000000     0.000000
    2    -1.000000     0.000000     1.000000     0.000000     0.000000     0.000000     0.000000     0.000000
    3     1.000000   120.000000     0.000000     0.000000    -1.000000     0.000000     0.000000     0.000000
    4    -1.000000   120.000000     0.000000     0.000000    -1.000000     0.000000     0.000000     0.000000
    5     1.000000   120.000000     0.000000     0.000000     1.000000     0.000000     0.000000     0.000000
    6    -1.000000   120.000000     0.000000     0.000000     1.000000     0.000000     0.000000     0.000000
    7     1.000000   180.000000     1.000000    -0.000000     0.000000     0.000000     0.000000     0.000000
    8    -1.000000   180.000000     1.000000    -0.000000     0.000000     0.000000     0.000000     0.000000
    9     1.000000   180.000000     0.500000    -0.866025     0.000000     0.000000     0.000000     0.000000
   10    -1.000000   180.000000     0.500000    -0.866025     0.000000     0.000000     0.000000     0.000000
   11     1.000000   180.000000    -0.500000    -0.866025     0.000000     0.000000     0.000000     0.000000
   12    -1.000000   180.000000    -0.500000    -0.866025     0.000000     0.000000     0.000000     0.000000
 
 Subroutine IBZKPT returns following result:
 ===========================================
 
 Found     90 irreducible k-points:
 
 Following reciprocal coordinates:
            Coordinates               Weight
  0.027778  0.027778  0.000000      6.000000
  0.083333  0.027778  0.000000     12.000000
  0.138889  0.027778  0.000000     12.000000
  0.194444  0.027778  0.000000     12.000000
  0.250000  0.027778  0.000000     12.000000
  0.305556  0.027778  0.000000     12.000000
  0.361111  0.027778  0.000000     12.000000
  0.416667  0.027778  0.000000     12.000000
  0.472222  0.027778  0.000000     12.000000
 -0.472222  0.027778  0.000000     12.000000
 -0.416667  0.027778  0.000000     12.000000
 -0.361111  0.027778  0.000000     12.000000
 -0.305556  0.027778  0.000000     12.000000
 -0.250000  0.027778  0.000000     12.000000
 -0.194444  0.027778  0.000000     12.000000
 -0.138889  0.027778  0.000000     12.000000
 -0.083333  0.027778  0.000000     12.000000
 -0.027778  0.027778  0.000000      6.000000
  0.083333  0.083333  0.000000      6.000000
  0.138889  0.083333  0.000000     12.000000
  0.194444  0.083333  0.000000     12.000000
  0.250000  0.083333  0.000000     12.000000
  0.305556  0.083333  0.000000     12.000000
  0.361111  0.083333  0.000000     12.000000
  0.416667  0.083333  0.000000     12.000000
  0.472222  0.083333  0.000000     12.000000
 -0.472222  0.083333  0.000000     12.000000
 -0.416667  0.083333  0.000000     12.000000
 -0.361111  0.083333  0.000000     12.000000
 -0.305556  0.083333  0.000000     12.000000
 -0.250000  0.083333  0.000000     12.000000
 -0.194444  0.083333  0.000000     12.000000
 -0.138889  0.083333  0.000000     12.000000
 -0.083333  0.083333  0.000000      6.000000
  0.138889  0.138889  0.000000      6.000000
  0.194444  0.138889  0.000000     12.000000
  0.250000  0.138889  0.000000     12.000000
  0.305556  0.138889  0.000000     12.000000
  0.361111  0.138889  0.000000     12.000000
  0.416667  0.138889  0.000000     12.000000
  0.472222  0.138889  0.000000     12.000000
 -0.472222  0.138889  0.000000     12.000000
 -0.416667  0.138889  0.000000     12.000000
 -0.361111  0.138889  0.000000     12.000000
 -0.305556  0.138889  0.000000     12.000000
 -0.250000  0.138889  0.000000     12.000000
 -0.194444  0.138889  0.000000     12.000000
 -0.138889  0.138889  0.000000      6.000000
  0.194444  0.194444  0.000000      6.000000
  0.250000  0.194444  0.000000     12.000000
  0.305556  0.194444  0.000000     12.000000
  0.361111  0.194444  0.000000     12.000000
  0.416667  0.194444  0.000000     12.000000
  0.472222  0.194444  0.000000     12.000000
 -0.472222  0.194444  0.000000     12.000000
 -0.416667  0.194444  0.000000     12.000000
 -0.361111  0.194444  0.000000     12.000000
 -0.305556  0.194444  0.000000     12.000000
 -0.250000  0.194444  0.000000     12.000000
 -0.194444  0.194444  0.000000      6.000000
  0.250000  0.250000  0.000000      6.000000
  0.305556  0.250000  0.000000     12.000000
  0.361111  0.250000  0.000000     12.000000
  0.416667  0.250000  0.000000     12.000000
  0.472222  0.250000  0.000000     12.000000
 -0.472222  0.250000  0.000000     12.000000
 -0.416667  0.250000  0.000000     12.000000
 -0.361111  0.250000  0.000000     12.000000
 -0.305556  0.250000  0.000000     12.000000
 -0.250000  0.250000  0.000000      6.000000
  0.305556  0.305556  0.000000      6.000000
  0.361111  0.305556  0.000000     12.000000
  0.416667  0.305556  0.000000     12.000000
  0.472222  0.305556  0.000000     12.000000
 -0.472222  0.305556  0.000000     12.000000
 -0.416667  0.305556  0.000000     12.000000
 -0.361111  0.305556  0.000000     12.000000
 -0.305556  0.305556  0.000000      6.000000
  0.361111  0.361111  0.000000      6.000000
  0.416667  0.361111  0.000000     12.000000
  0.472222  0.361111  0.000000     12.000000
 -0.472222  0.361111  0.000000     12.000000
 -0.416667  0.361111  0.000000     12.000000
 -0.361111  0.361111  0.000000      6.000000
  0.416667  0.416667  0.000000      6.000000
  0.472222  0.416667  0.000000     12.000000
 -0.472222  0.416667  0.000000     12.000000
 -0.416667  0.416667  0.000000      6.000000
  0.472222  0.472222  0.000000      6.000000
 -0.472222  0.472222  0.000000      6.000000
 
 Following cartesian coordinates:
            Coordinates               Weight
  0.007141  0.012369  0.000000      6.000000
  0.021424  0.020615  0.000000     12.000000
  0.035707  0.028862  0.000000     12.000000
  0.049990  0.037108  0.000000     12.000000
  0.064273  0.045354  0.000000     12.000000
  0.078555  0.053600  0.000000     12.000000
  0.092838  0.061846  0.000000     12.000000
  0.107121  0.070093  0.000000     12.000000
  0.121404  0.078339  0.000000     12.000000
 -0.121404 -0.061846  0.000000     12.000000
 -0.107121 -0.053600  0.000000     12.000000
 -0.092838 -0.045354  0.000000     12.000000
 -0.078555 -0.037108  0.000000     12.000000
 -0.064273 -0.028862  0.000000     12.000000
 -0.049990 -0.020615  0.000000     12.000000
 -0.035707 -0.012369  0.000000     12.000000
 -0.021424 -0.004123  0.000000     12.000000
 -0.007141  0.004123  0.000000      6.000000
  0.021424  0.037108  0.000000      6.000000
  0.035707  0.045354  0.000000     12.000000
  0.049990  0.053600  0.000000     12.000000
  0.064273  0.061846  0.000000     12.000000
  0.078555  0.070093  0.000000     12.000000
  0.092838  0.078339  0.000000     12.000000
  0.107121  0.086585  0.000000     12.000000
  0.121404  0.094831  0.000000     12.000000
 -0.121404 -0.045354  0.000000     12.000000
 -0.107121 -0.037108  0.000000     12.000000
 -0.092838 -0.028862  0.000000     12.000000
 -0.078555 -0.020615  0.000000     12.000000
 -0.064273 -0.012369  0.000000     12.000000
 -0.049990 -0.004123  0.000000     12.000000
 -0.035707  0.004123  0.000000     12.000000
 -0.021424  0.012369  0.000000      6.000000
  0.035707  0.061846  0.000000      6.000000
  0.049990  0.070093  0.000000     12.000000
  0.064273  0.078339  0.000000     12.000000
  0.078555  0.086585  0.000000     12.000000
  0.092838  0.094831  0.000000     12.000000
  0.107121  0.103077  0.000000     12.000000
  0.121404  0.111323  0.000000     12.000000
 -0.121404 -0.028862  0.000000     12.000000
 -0.107121 -0.020615  0.000000     12.000000
 -0.092838 -0.012369  0.000000     12.000000
 -0.078555 -0.004123  0.000000     12.000000
 -0.064273  0.004123  0.000000     12.000000
 -0.049990  0.012369  0.000000     12.000000
 -0.035707  0.020615  0.000000      6.000000
  0.049990  0.086585  0.000000      6.000000
  0.064273  0.094831  0.000000     12.000000
  0.078555  0.103077  0.000000     12.000000
  0.092838  0.111323  0.000000     12.000000
  0.107121  0.119570  0.000000     12.000000
  0.121404  0.127816  0.000000     12.000000
 -0.121404 -0.012369  0.000000     12.000000
 -0.107121 -0.004123  0.000000     12.000000
 -0.092838  0.004123  0.000000     12.000000
 -0.078555  0.012369  0.000000     12.000000
 -0.064273  0.020615  0.000000     12.000000
 -0.049990  0.028862  0.000000      6.000000
  0.064273  0.111323  0.000000      6.000000
  0.078555  0.119570  0.000000     12.000000
  0.092838  0.127816  0.000000     12.000000
  0.107121  0.136062  0.000000     12.000000
  0.121404  0.144308  0.000000     12.000000
 -0.121404  0.004123  0.000000     12.000000
 -0.107121  0.012369  0.000000     12.000000
 -0.092838  0.020615  0.000000     12.000000
 -0.078555  0.028862  0.000000     12.000000
 -0.064273  0.037108  0.000000      6.000000
  0.078555  0.136062  0.000000      6.000000
  0.092838  0.144308  0.000000     12.000000
  0.107121  0.152554  0.000000     12.000000
  0.121404  0.160801  0.000000     12.000000
 -0.121404  0.020615  0.000000     12.000000
 -0.107121  0.028862  0.000000     12.000000
 -0.092838  0.037108  0.000000     12.000000
 -0.078555  0.045354  0.000000      6.000000
  0.092838  0.160801  0.000000      6.000000
  0.107121  0.169047  0.000000     12.000000
  0.121404  0.177293  0.000000     12.000000
 -0.121404  0.037108  0.000000     12.000000
 -0.107121  0.045354  0.000000     12.000000
 -0.092838  0.053600  0.000000      6.000000
  0.107121  0.185539  0.000000      6.000000
  0.121404  0.193785  0.000000     12.000000
 -0.121404  0.053600  0.000000     12.000000
 -0.107121  0.061846  0.000000      6.000000
  0.121404  0.210278  0.000000      6.000000
 -0.121404  0.070093  0.000000      6.000000
 


--------------------------------------------------------------------------------------------------------




 Dimension of arrays:
   k-points           NKPTS =     90   k-points in BZ     NKDIM =     90   number of bands    NBANDS=     32
   number of dos      NEDOS =   2001   number of ions     NIONS =      4
   non local maximal  LDIM  =      6   non local SUM 2l+1 LMDIM =     18
   total plane-waves  NPLWV = 109760
   max r-space proj   IRMAX =      1   max aug-charges    IRDMAX= 112158
   dimension x,y,z NGX =    28 NGY =   28 NGZ =  140
   dimension x,y,z NGXF=    56 NGYF=   56 NGZF=  280
   support grid    NGXF=   112 NGYF=  112 NGZF=  560
   ions per type =               2   2
   NGX,Y,Z   is equivalent  to a cutoff of  11.97, 11.97, 12.34 a.u.
   NGXF,Y,Z  is equivalent  to a cutoff of  23.93, 23.93, 24.69 a.u.

 SYSTEM =  unknown system                          
 POSCAR =  S2Zn2                                   

 Startparameter for this run:
   NWRITE =      2    write-flag & timer
   PREC   = accura    normal or accurate (medium, high low for compatibility)
   ISTART =      0    job   : 0-new  1-cont  2-samecut
   ICHARG =      2    charge: 1-file 2-atom 10-const
   ISPIN  =      1    spin polarized calculation?
   LNONCOLLINEAR =      F non collinear calculations
   LSORBIT =      F    spin-orbit coupling
   INIWAV =      1    electr: 0-lowe 1-rand  2-diag
   LASPH  =      T    aspherical Exc in radial PAW
   METAGGA=      F    non-selfconsistent MetaGGA calc.

 Electronic Relaxation 1
   ENCUT  =  500.0 eV  36.75 Ry    6.06 a.u.   7.09  7.09 34.38*2*pi/ulx,y,z
   ENINI  =  500.0     initial cutoff
   ENAUG  =  575.9 eV  augmentation charge cutoff
   NELM   =     60;   NELMIN=  2; NELMDL=  0     # of ELM steps 
   EDIFF  = 0.1E-07   stopping-criterion for ELM
   LREAL  =      F    real-space projection
   NLSPLINE    = F    spline interpolate recip. space projectors
   LCOMPAT=      F    compatible to vasp.4.4
   GGA_COMPAT  = T    GGA compatible to vasp.4.4-vasp.4.6
   LMAXPAW     = -100 max onsite density
   LMAXMIX     =    2 max onsite mixed and CHGCAR
   VOSKOWN=      0    Vosko Wilk Nusair interpolation
   ROPT   =    0.00000   0.00000
 Ionic relaxation
   EDIFFG = 0.1E-06   stopping-criterion for IOM
   NSW    =      0    number of steps for IOM
   NBLOCK =      1;   KBLOCK =      1    inner block; outer block 
   IBRION =     -1    ionic relax: 0-MD 1-quasi-New 2-CG
   NFREE  =      0    steps in history (QN), initial steepest desc. (CG)
   ISIF   =      2    stress and relaxation
   IWAVPR =     10    prediction:  0-non 1-charg 2-wave 3-comb
   ISYM   =      2    0-nonsym 1-usesym 2-fastsym
   LCORR  =      T    Harris-Foulkes like correction to forces

   POTIM  = 0.5000    time-step for ionic-motion
   TEIN   =    0.0    initial temperature
   TEBEG  =    0.0;   TEEND  =   0.0 temperature during run
   SMASS  =  -3.00    Nose mass-parameter (am)
   estimated Nose-frequenzy (Omega)   =  0.10E-29 period in steps = 0.13E+47 mass=  -0.346E-27a.u.
   SCALEE = 1.0000    scale energy and forces
   NPACO  =    256;   APACO  = 16.0  distance and # of slots for P.C.
   PSTRESS=    0.0 pullay stress

  Mass of Ions in am
   POMASS =  32.07 65.39
  Ionic Valenz
   ZVAL   =   6.00 12.00
  Atomic Wigner-Seitz radii
   RWIGS  =  -1.00 -1.00
  virtual crystal weights 
   VCA    =   1.00  1.00
   NELECT =      36.0000    total number of electrons
   NUPDOWN=      -1.0000    fix difference up-down

 DOS related values:
   EMIN   =  10.00;   EMAX   =-10.00  energy-range for DOS
   EFERMI =   0.00
   ISMEAR =     0;   SIGMA  =   0.05  broadening in eV -4-tet -1-fermi 0-gaus

 Electronic relaxation 2 (details)
   IALGO  =     38    algorithm
   LDIAG  =      T    sub-space diagonalisation (order eigenvalues)
   LSUBROT=      F    optimize rotation matrix (better conditioning)
   TURBO    =      0    0=normal 1=particle mesh
   IRESTART =      0    0=no restart 2=restart with 2 vectors
   NREBOOT  =      0    no. of reboots
   NMIN     =      0    reboot dimension
   EREF     =   0.00    reference energy to select bands
   IMIX   =      4    mixing-type and parameters
     AMIX     =   0.40;   BMIX     =  1.00
     AMIX_MAG =   1.60;   BMIX_MAG =  1.00
     AMIN     =   0.10
     WC   =   100.;   INIMIX=   1;  MIXPRE=   1;  MAXMIX= -45

 Intra band minimization:
   WEIMIN = 0.0000     energy-eigenvalue tresh-hold
   EBREAK =  0.78E-10  absolut break condition
   DEPER  =   0.30     relativ break condition  

   TIME   =   0.40     timestep for ELM

  volume/ion in A,a.u.               =      61.77       416.81
  Fermi-wavevector in a.u.,A,eV,Ry     =   0.861472  1.627946 10.097347  0.742134
  Thomas-Fermi vector in A             =   1.979131
 
 Write flags
   LWAVE        =      T    write WAVECAR
   LDOWNSAMPLE  =      F    k-point downsampling of WAVECAR
   LCHARG       =      T    write CHGCAR
   LVTOT        =      F    write LOCPOT, total local potential
   LVHAR        =      T    write LOCPOT, Hartree potential only
   LELF         =      F    write electronic localiz. function (ELF)
   LORBIT       =     11    0 simple, 1 ext, 2 COOP (PROOUT), +10 PAW based schemes


 Dipole corrections
   LMONO  =      F    monopole corrections only (constant potential shift)
   LDIPOL =      F    correct potential (dipole corrections)
   IDIPOL =      0    1-x, 2-y, 3-z, 4-all directions 
   EPSILON=  1.0000000 bulk dielectric constant

 Exchange correlation treatment:
   GGA     =    --    GGA type
   LEXCH   =     8    internal setting for exchange type
   VOSKOWN=      0    Vosko Wilk Nusair interpolation
   LHFCALC =     F    Hartree Fock is set to
   LHFONE  =     F    Hartree Fock one center treatment
   AEXX    =    0.0000 exact exchange contribution

 Linear response parameters
   LEPSILON=     F    determine dielectric tensor
   LRPA    =     F    only Hartree local field effects (RPA)
   LNABLA  =     F    use nabla operator in PAW spheres
   LVEL    =     F    velocity operator in full k-point grid
   LINTERFAST=   F  fast interpolation
   KINTER  =     0    interpolate to denser k-point grid
   CSHIFT  =0.1000    complex shift for real part using Kramers Kronig
   OMEGAMAX=  -1.0    maximum frequency
   DEG_THRESHOLD= 0.2000000E-02 threshold for treating states as degnerate
   RTIME   =   -0.100 relaxation time in fs
  (WPLASMAI=    0.000 imaginary part of plasma frequency in eV, 0.658/RTIME)
   DFIELD  = 0.0000000 0.0000000 0.0000000 field for delta impulse in time
 
 Orbital magnetization related:
   ORBITALMAG=     F  switch on orbital magnetization
   LCHIMAG   =     F  perturbation theory with respect to B field
   DQ        =  0.001000  dq finite difference perturbation B field
   LLRAUG    =     F  two centre corrections for induced B field



--------------------------------------------------------------------------------------------------------


 Static calculation
 charge density and potential will be updated during run
 non-spin polarized calculation
 Variant of blocked Davidson
 Davidson routine will perform the subspace rotation
 perform sub-space diagonalisation
    after iterative eigenvector-optimisation
 modified Broyden-mixing scheme, WC =      100.0
 initial mixing is a Kerker type mixing with AMIX =  0.4000 and BMIX =      1.0000
 Hartree-type preconditioning will be used
 using additional bands           14
 reciprocal scheme for non local part
 use partial core corrections
 calculate Harris-corrections to forces 
   (improved forces if not selfconsistent)
 use gradient corrections 
 use of overlap-Matrix (Vanderbilt PP)
 Gauss-broadening in eV      SIGMA  =   0.05


--------------------------------------------------------------------------------------------------------


  energy-cutoff  :      500.00
  volume of cell :      247.06
      direct lattice vectors                 reciprocal lattice vectors
     3.889680290  0.000000000  0.000000000     0.257090538  0.148431292  0.000000000
    -1.944840145  3.368561944  0.000000000     0.000000000  0.296862583  0.000000000
     0.000000000  0.000000000 18.855800629     0.000000000  0.000000000  0.053034078

  length of vectors
     3.889680290  3.889680290 18.855800629     0.296862583  0.296862583  0.053034078


 
 k-points in units of 2pi/SCALE and weight: K-Spacing Value to Generate K-Mesh: 0.02
   0.00714140  0.01236927  0.00000000       0.006
   0.02142421  0.02061546  0.00000000       0.012
   0.03570702  0.02886164  0.00000000       0.012
   0.04998983  0.03710782  0.00000000       0.012
   0.06427263  0.04535401  0.00000000       0.012
   0.07855544  0.05360019  0.00000000       0.012
   0.09283825  0.06184637  0.00000000       0.012
   0.10712106  0.07009255  0.00000000       0.012
   0.12140387  0.07833874  0.00000000       0.012
  -0.12140387 -0.06184637  0.00000000       0.012
  -0.10712106 -0.05360019  0.00000000       0.012
  -0.09283825 -0.04535401  0.00000000       0.012
  -0.07855544 -0.03710782  0.00000000       0.012
  -0.06427263 -0.02886164  0.00000000       0.012
  -0.04998983 -0.02061546  0.00000000       0.012
  -0.03570702 -0.01236927  0.00000000       0.012
  -0.02142421 -0.00412309  0.00000000       0.012
  -0.00714140  0.00412309  0.00000000       0.006
   0.02142421  0.03710782  0.00000000       0.006
   0.03570702  0.04535401  0.00000000       0.012
   0.04998983  0.05360019  0.00000000       0.012
   0.06427263  0.06184637  0.00000000       0.012
   0.07855544  0.07009255  0.00000000       0.012
   0.09283825  0.07833874  0.00000000       0.012
   0.10712106  0.08658492  0.00000000       0.012
   0.12140387  0.09483110  0.00000000       0.012
  -0.12140387 -0.04535401  0.00000000       0.012
  -0.10712106 -0.03710782  0.00000000       0.012
  -0.09283825 -0.02886164  0.00000000       0.012
  -0.07855544 -0.02061546  0.00000000       0.012
  -0.06427263 -0.01236927  0.00000000       0.012
  -0.04998983 -0.00412309  0.00000000       0.012
  -0.03570702  0.00412309  0.00000000       0.012
  -0.02142421  0.01236927  0.00000000       0.006
   0.03570702  0.06184637  0.00000000       0.006
   0.04998983  0.07009255  0.00000000       0.012
   0.06427263  0.07833874  0.00000000       0.012
   0.07855544  0.08658492  0.00000000       0.012
   0.09283825  0.09483110  0.00000000       0.012
   0.10712106  0.10307729  0.00000000       0.012
   0.12140387  0.11132347  0.00000000       0.012
  -0.12140387 -0.02886164  0.00000000       0.012
  -0.10712106 -0.02061546  0.00000000       0.012
  -0.09283825 -0.01236927  0.00000000       0.012
  -0.07855544 -0.00412309  0.00000000       0.012
  -0.06427263  0.00412309  0.00000000       0.012
  -0.04998983  0.01236927  0.00000000       0.012
  -0.03570702  0.02061546  0.00000000       0.006
   0.04998983  0.08658492  0.00000000       0.006
   0.06427263  0.09483110  0.00000000       0.012
   0.07855544  0.10307729  0.00000000       0.012
   0.09283825  0.11132347  0.00000000       0.012
   0.10712106  0.11956965  0.00000000       0.012
   0.12140387  0.12781583  0.00000000       0.012
  -0.12140387 -0.01236927  0.00000000       0.012
  -0.10712106 -0.00412309  0.00000000       0.012
  -0.09283825  0.00412309  0.00000000       0.012
  -0.07855544  0.01236927  0.00000000       0.012
  -0.06427263  0.02061546  0.00000000       0.012
  -0.04998983  0.02886164  0.00000000       0.006
   0.06427263  0.11132347  0.00000000       0.006
   0.07855544  0.11956965  0.00000000       0.012
   0.09283825  0.12781583  0.00000000       0.012
   0.10712106  0.13606202  0.00000000       0.012
   0.12140387  0.14430820  0.00000000       0.012
  -0.12140387  0.00412309  0.00000000       0.012
  -0.10712106  0.01236927  0.00000000       0.012
  -0.09283825  0.02061546  0.00000000       0.012
  -0.07855544  0.02886164  0.00000000       0.012
  -0.06427263  0.03710782  0.00000000       0.006
   0.07855544  0.13606202  0.00000000       0.006
   0.09283825  0.14430820  0.00000000       0.012
   0.10712106  0.15255438  0.00000000       0.012
   0.12140387  0.16080057  0.00000000       0.012
  -0.12140387  0.02061546  0.00000000       0.012
  -0.10712106  0.02886164  0.00000000       0.012
  -0.09283825  0.03710782  0.00000000       0.012
  -0.07855544  0.04535401  0.00000000       0.006
   0.09283825  0.16080057  0.00000000       0.006
   0.10712106  0.16904675  0.00000000       0.012
   0.12140387  0.17729293  0.00000000       0.012
  -0.12140387  0.03710782  0.00000000       0.012
  -0.10712106  0.04535401  0.00000000       0.012
  -0.09283825  0.05360019  0.00000000       0.006
   0.10712106  0.18553911  0.00000000       0.006
   0.12140387  0.19378530  0.00000000       0.012
  -0.12140387  0.05360019  0.00000000       0.012
  -0.10712106  0.06184637  0.00000000       0.006
   0.12140387  0.21027766  0.00000000       0.006
  -0.12140387  0.07009255  0.00000000       0.006
 
 k-points in reciprocal lattice and weights: K-Spacing Value to Generate K-Mesh: 0.02
   0.02777778  0.02777778  0.00000000       0.006
   0.08333333  0.02777778  0.00000000       0.012
   0.13888889  0.02777778  0.00000000       0.012
   0.19444444  0.02777778  0.00000000       0.012
   0.25000000  0.02777778  0.00000000       0.012
   0.30555556  0.02777778  0.00000000       0.012
   0.36111111  0.02777778  0.00000000       0.012
   0.41666667  0.02777778  0.00000000       0.012
   0.47222222  0.02777778  0.00000000       0.012
  -0.47222222  0.02777778  0.00000000       0.012
  -0.41666667  0.02777778  0.00000000       0.012
  -0.36111111  0.02777778  0.00000000       0.012
  -0.30555556  0.02777778  0.00000000       0.012
  -0.25000000  0.02777778  0.00000000       0.012
  -0.19444444  0.02777778  0.00000000       0.012
  -0.13888889  0.02777778  0.00000000       0.012
  -0.08333333  0.02777778  0.00000000       0.012
  -0.02777778  0.02777778  0.00000000       0.006
   0.08333333  0.08333333  0.00000000       0.006
   0.13888889  0.08333333  0.00000000       0.012
   0.19444444  0.08333333  0.00000000       0.012
   0.25000000  0.08333333  0.00000000       0.012
   0.30555556  0.08333333  0.00000000       0.012
   0.36111111  0.08333333  0.00000000       0.012
   0.41666667  0.08333333  0.00000000       0.012
   0.47222222  0.08333333  0.00000000       0.012
  -0.47222222  0.08333333  0.00000000       0.012
  -0.41666667  0.08333333  0.00000000       0.012
  -0.36111111  0.08333333  0.00000000       0.012
  -0.30555556  0.08333333  0.00000000       0.012
  -0.25000000  0.08333333  0.00000000       0.012
  -0.19444444  0.08333333  0.00000000       0.012
  -0.13888889  0.08333333  0.00000000       0.012
  -0.08333333  0.08333333  0.00000000       0.006
   0.13888889  0.13888889  0.00000000       0.006
   0.19444444  0.13888889  0.00000000       0.012
   0.25000000  0.13888889  0.00000000       0.012
   0.30555556  0.13888889  0.00000000       0.012
   0.36111111  0.13888889  0.00000000       0.012
   0.41666667  0.13888889  0.00000000       0.012
   0.47222222  0.13888889  0.00000000       0.012
  -0.47222222  0.13888889  0.00000000       0.012
  -0.41666667  0.13888889  0.00000000       0.012
  -0.36111111  0.13888889  0.00000000       0.012
  -0.30555556  0.13888889  0.00000000       0.012
  -0.25000000  0.13888889  0.00000000       0.012
  -0.19444444  0.13888889  0.00000000       0.012
  -0.13888889  0.13888889  0.00000000       0.006
   0.19444444  0.19444444  0.00000000       0.006
   0.25000000  0.19444444  0.00000000       0.012
   0.30555556  0.19444444  0.00000000       0.012
   0.36111111  0.19444444  0.00000000       0.012
   0.41666667  0.19444444  0.00000000       0.012
   0.47222222  0.19444444  0.00000000       0.012
  -0.47222222  0.19444444  0.00000000       0.012
  -0.41666667  0.19444444  0.00000000       0.012
  -0.36111111  0.19444444  0.00000000       0.012
  -0.30555556  0.19444444  0.00000000       0.012
  -0.25000000  0.19444444  0.00000000       0.012
  -0.19444444  0.19444444  0.00000000       0.006
   0.25000000  0.25000000  0.00000000       0.006
   0.30555556  0.25000000  0.00000000       0.012
   0.36111111  0.25000000  0.00000000       0.012
   0.41666667  0.25000000  0.00000000       0.012
   0.47222222  0.25000000  0.00000000       0.012
  -0.47222222  0.25000000  0.00000000       0.012
  -0.41666667  0.25000000  0.00000000       0.012
  -0.36111111  0.25000000  0.00000000       0.012
  -0.30555556  0.25000000  0.00000000       0.012
  -0.25000000  0.25000000  0.00000000       0.006
   0.30555556  0.30555556  0.00000000       0.006
   0.36111111  0.30555556  0.00000000       0.012
   0.41666667  0.30555556  0.00000000       0.012
   0.47222222  0.30555556  0.00000000       0.012
  -0.47222222  0.30555556  0.00000000       0.012
  -0.41666667  0.30555556  0.00000000       0.012
  -0.36111111  0.30555556  0.00000000       0.012
  -0.30555556  0.30555556  0.00000000       0.006
   0.36111111  0.36111111  0.00000000       0.006
   0.41666667  0.36111111  0.00000000       0.012
   0.47222222  0.36111111  0.00000000       0.012
  -0.47222222  0.36111111  0.00000000       0.012
  -0.41666667  0.36111111  0.00000000       0.012
  -0.36111111  0.36111111  0.00000000       0.006
   0.41666667  0.41666667  0.00000000       0.006
   0.47222222  0.41666667  0.00000000       0.012
  -0.47222222  0.41666667  0.00000000       0.012
  -0.41666667  0.41666667  0.00000000       0.006
   0.47222222  0.47222222  0.00000000       0.006
  -0.47222222  0.47222222  0.00000000       0.006
 
 position of ions in fractional coordinates (direct lattice) 
   0.33333334  0.66666669  0.41650080
   0.66666666  0.33333331  0.58349920
   0.33333334  0.66666669  0.55433352
   0.66666666  0.33333331  0.44566648
 
 position of ions in cartesian coordinates  (Angst):
   0.00000000  2.24570803  7.85345613
   1.94484015  1.12285391 11.00234450
   0.00000000  2.24570803 10.45240234
   1.94484015  1.12285391  8.40339829
 


--------------------------------------------------------------------------------------------------------


 k-point   1 :   0.0278 0.0278 0.0000  plane waves:    6231
 k-point   2 :   0.0833 0.0278 0.0000  plane waves:    6227
 k-point   3 :   0.1389 0.0278 0.0000  plane waves:    6237
 k-point   4 :   0.1944 0.0278 0.0000  plane waves:    6268
 k-point   5 :   0.2500 0.0278 0.0000  plane waves:    6265
 k-point   6 :   0.3056 0.0278 0.0000  plane waves:    6266
 k-point   7 :   0.3611 0.0278 0.0000  plane waves:    6271
 k-point   8 :   0.4167 0.0278 0.0000  plane waves:    6276
 k-point   9 :   0.4722 0.0278 0.0000  plane waves:    6290
 k-point  10 :  -0.4722 0.0278 0.0000  plane waves:    6282
 k-point  11 :  -0.4167 0.0278 0.0000  plane waves:    6270
 k-point  12 :  -0.3611 0.0278 0.0000  plane waves:    6279
 k-point  13 :  -0.3056 0.0278 0.0000  plane waves:    6265
 k-point  14 :  -0.2500 0.0278 0.0000  plane waves:    6263
 k-point  15 :  -0.1944 0.0278 0.0000  plane waves:    6250
 k-point  16 :  -0.1389 0.0278 0.0000  plane waves:    6232
 k-point  17 :  -0.0833 0.0278 0.0000  plane waves:    6221
 k-point  18 :  -0.0278 0.0278 0.0000  plane waves:    6241
 k-point  19 :   0.0833 0.0833 0.0000  plane waves:    6217
 k-point  20 :   0.1389 0.0833 0.0000  plane waves:    6235
 k-point  21 :   0.1944 0.0833 0.0000  plane waves:    6253
 k-point  22 :   0.2500 0.0833 0.0000  plane waves:    6275
 k-point  23 :   0.3056 0.0833 0.0000  plane waves:    6271
 k-point  24 :   0.3611 0.0833 0.0000  plane waves:    6270
 k-point  25 :   0.4167 0.0833 0.0000  plane waves:    6280
 k-point  26 :   0.4722 0.0833 0.0000  plane waves:    6292
 k-point  27 :  -0.4722 0.0833 0.0000  plane waves:    6276
 k-point  28 :  -0.4167 0.0833 0.0000  plane waves:    6265
 k-point  29 :  -0.3611 0.0833 0.0000  plane waves:    6273
 k-point  30 :  -0.3056 0.0833 0.0000  plane waves:    6267
 k-point  31 :  -0.2500 0.0833 0.0000  plane waves:    6252
 k-point  32 :  -0.1944 0.0833 0.0000  plane waves:    6224
 k-point  33 :  -0.1389 0.0833 0.0000  plane waves:    6223
 k-point  34 :  -0.0833 0.0833 0.0000  plane waves:    6219
 k-point  35 :   0.1389 0.1389 0.0000  plane waves:    6247
 k-point  36 :   0.1944 0.1389 0.0000  plane waves:    6263
 k-point  37 :   0.2500 0.1389 0.0000  plane waves:    6278
 k-point  38 :   0.3056 0.1389 0.0000  plane waves:    6284
 k-point  39 :   0.3611 0.1389 0.0000  plane waves:    6287
 k-point  40 :   0.4167 0.1389 0.0000  plane waves:    6301
 k-point  41 :   0.4722 0.1389 0.0000  plane waves:    6285
 k-point  42 :  -0.4722 0.1389 0.0000  plane waves:    6286
 k-point  43 :  -0.4167 0.1389 0.0000  plane waves:    6274
 k-point  44 :  -0.3611 0.1389 0.0000  plane waves:    6274
 k-point  45 :  -0.3056 0.1389 0.0000  plane waves:    6259
 k-point  46 :  -0.2500 0.1389 0.0000  plane waves:    6245
 k-point  47 :  -0.1944 0.1389 0.0000  plane waves:    6238
 k-point  48 :  -0.1389 0.1389 0.0000  plane waves:    6243
 k-point  49 :   0.1944 0.1944 0.0000  plane waves:    6279
 k-point  50 :   0.2500 0.1944 0.0000  plane waves:    6284
 k-point  51 :   0.3056 0.1944 0.0000  plane waves:    6291
 k-point  52 :   0.3611 0.1944 0.0000  plane waves:    6298
 k-point  53 :   0.4167 0.1944 0.0000  plane waves:    6295
 k-point  54 :   0.4722 0.1944 0.0000  plane waves:    6291
 k-point  55 :  -0.4722 0.1944 0.0000  plane waves:    6288
 k-point  56 :  -0.4167 0.1944 0.0000  plane waves:    6282
 k-point  57 :  -0.3611 0.1944 0.0000  plane waves:    6267
 k-point  58 :  -0.3056 0.1944 0.0000  plane waves:    6262
 k-point  59 :  -0.2500 0.1944 0.0000  plane waves:    6258
 k-point  60 :  -0.1944 0.1944 0.0000  plane waves:    6268
 k-point  61 :   0.2500 0.2500 0.0000  plane waves:    6285
 k-point  62 :   0.3056 0.2500 0.0000  plane waves:    6306
 k-point  63 :   0.3611 0.2500 0.0000  plane waves:    6303
 k-point  64 :   0.4167 0.2500 0.0000  plane waves:    6313
 k-point  65 :   0.4722 0.2500 0.0000  plane waves:    6293
 k-point  66 :  -0.4722 0.2500 0.0000  plane waves:    6286
 k-point  67 :  -0.4167 0.2500 0.0000  plane waves:    6284
 k-point  68 :  -0.3611 0.2500 0.0000  plane waves:    6264
 k-point  69 :  -0.3056 0.2500 0.0000  plane waves:    6259
 k-point  70 :  -0.2500 0.2500 0.0000  plane waves:    6274
 k-point  71 :   0.3056 0.3056 0.0000  plane waves:    6315
 k-point  72 :   0.3611 0.3056 0.0000  plane waves:    6313
 k-point  73 :   0.4167 0.3056 0.0000  plane waves:    6319
 k-point  74 :   0.4722 0.3056 0.0000  plane waves:    6295
 k-point  75 :  -0.4722 0.3056 0.0000  plane waves:    6290
 k-point  76 :  -0.4167 0.3056 0.0000  plane waves:    6286
 k-point  77 :  -0.3611 0.3056 0.0000  plane waves:    6277
 k-point  78 :  -0.3056 0.3056 0.0000  plane waves:    6266
 k-point  79 :   0.3611 0.3611 0.0000  plane waves:    6305
 k-point  80 :   0.4167 0.3611 0.0000  plane waves:    6305
 k-point  81 :   0.4722 0.3611 0.0000  plane waves:    6292
 k-point  82 :  -0.4722 0.3611 0.0000  plane waves:    6277
 k-point  83 :  -0.4167 0.3611 0.0000  plane waves:    6274
 k-point  84 :  -0.3611 0.3611 0.0000  plane waves:    6272
 k-point  85 :   0.4167 0.4167 0.0000  plane waves:    6299
 k-point  86 :   0.4722 0.4167 0.0000  plane waves:    6287
 k-point  87 :  -0.4722 0.4167 0.0000  plane waves:    6280
 k-point  88 :  -0.4167 0.4167 0.0000  plane waves:    6272
 k-point  89 :   0.4722 0.4722 0.0000  plane waves:    6290
 k-point  90 :  -0.4722 0.4722 0.0000  plane waves:    6284

 maximum and minimum number of plane-waves per node :      6319     6217

 maximum number of plane-waves:      6319
 maximum index in each direction: 
   IXMAX=    7   IYMAX=    7   IZMAX=   34
   IXMIN=   -7   IYMIN=   -7   IZMIN=  -34


 serial   3D FFT for wavefunctions
 parallel 3D FFT for charge:
    minimum data exchange during FFTs selected (reduces bandwidth)


 total amount of memory used by VASP MPI-rank0   214945. kBytes
=======================================================================

   base      :      30000. kBytes
   nonl-proj :     164634. kBytes
   fftplans  :       4865. kBytes
   grid      :       6168. kBytes
   one-center:         62. kBytes
   wavefun   :       9216. kBytes
 
     INWAV:  cpu time    0.0000: real time    0.0000
 Broyden mixing: mesh for mixing (old mesh)
   NGX = 15   NGY = 15   NGZ = 69
  (NGX  = 56   NGY  = 56   NGZ  =280)
  gives a total of  15525 points

 initial charge density was supplied:
 charge density of overlapping atoms calculated
 number of electron      36.0000000 magnetization 
 keeping initial charge density in first step


--------------------------------------------------------------------------------------------------------


 Maximum index for augmentation-charges         3665 (set IRDMAX)


--------------------------------------------------------------------------------------------------------


 First call to EWALD:  gamma=   0.282
 Maximum number of real-space cells 5x 5x 1
 Maximum number of reciprocal cells 2x 2x 7

    FEWALD:  cpu time    0.0011: real time    0.0011


--------------------------------------- Iteration      1(   1)  ---------------------------------------


    POTLOK:  cpu time    0.0170: real time    0.0172
    SETDIJ:  cpu time    0.1138: real time    0.1141
     EDDAV:  cpu time    1.4006: real time    1.4041
       DOS:  cpu time    0.0014: real time    0.0016
    --------------------------------------------
      LOOP:  cpu time    1.5328: real time    1.5370

 eigenvalue-minimisations  :  5760
 total energy-change (2. order) : 0.1198052E+03  (-0.1619799E+04)
 number of electron      36.0000000 magnetization 
 augmentation part       36.0000000 magnetization 

 Free energy of the ion-electron system (eV)
  ---------------------------------------------------
  alpha Z        PSCENC =        45.77011789
  Ewald energy   TEWEN  =      5623.88722478
  -Hartree energ DENC   =     -9214.96631574
  -exchange      EXHF   =         0.00000000
  -V(xc)+E(xc)   XCENC  =       138.41006317
  PAW double counting   =      3345.42656771    -3694.17617221
  entropy T*S    EENTRO =        -0.00245818
  eigenvalues    EBANDS =      -175.84906772
  atomic energy  EATOM  =      4051.30523217
  Solvation  Ediel_sol  =         0.00000000
  ---------------------------------------------------
  free energy    TOTEN  =       119.80519188 eV

  energy without entropy =      119.80765006  energy(sigma->0) =      119.80642097


--------------------------------------------------------------------------------------------------------




--------------------------------------- Iteration      1(   2)  ---------------------------------------


     EDDAV:  cpu time    1.9131: real time    1.9186
       DOS:  cpu time    0.0007: real time    0.0007
    --------------------------------------------
      LOOP:  cpu time    1.9139: real time    1.9193

 eigenvalue-minimisations  :  7840
 total energy-change (2. order) :-0.1269965E+03  (-0.1243633E+03)
 number of electron      36.0000000 magnetization 
 augmentation part       36.0000000 magnetization 

 Free energy of the ion-electron system (eV)
  ---------------------------------------------------
  alpha Z        PSCENC =        45.77011789
  Ewald energy   TEWEN  =      5623.88722478
  -Hartree energ DENC   =     -9214.96631574
  -exchange      EXHF   =         0.00000000
  -V(xc)+E(xc)   XCENC  =       138.41006317
  PAW double counting   =      3345.42656771    -3694.17617221
  entropy T*S    EENTRO =        -0.00000000
  eigenvalues    EBANDS =      -302.84802300
  atomic energy  EATOM  =      4051.30523217
  Solvation  Ediel_sol  =         0.00000000
  ---------------------------------------------------
  free energy    TOTEN  =        -7.19130523 eV

  energy without entropy =       -7.19130523  energy(sigma->0) =       -7.19130523


--------------------------------------------------------------------------------------------------------




--------------------------------------- Iteration      1(   3)  ---------------------------------------


     EDDAV:  cpu time    1.9434: real time    1.9488
       DOS:  cpu time    0.0007: real time    0.0007
    --------------------------------------------
      LOOP:  cpu time    1.9441: real time    1.9495

 eigenvalue-minimisations  :  7840
 total energy-change (2. order) :-0.6870253E+01  (-0.6870253E+01)
 number of electron      36.0000000 magnetization 
 augmentation part       36.0000000 magnetization 

 Free energy of the ion-electron system (eV)
  ---------------------------------------------------
  alpha Z        PSCENC =        45.77011789
  Ewald energy   TEWEN  =      5623.88722478
  -Hartree energ DENC   =     -9214.96631574
  -exchange      EXHF   =         0.00000000
  -V(xc)+E(xc)   XCENC  =       138.41006317
  PAW double counting   =      3345.42656771    -3694.17617221
  entropy T*S    EENTRO =        -0.00000000
  eigenvalues    EBANDS =      -309.71827607
  atomic energy  EATOM  =      4051.30523217
  Solvation  Ediel_sol  =         0.00000000
  ---------------------------------------------------
  free energy    TOTEN  =       -14.06155830 eV

  energy without entropy =      -14.06155830  energy(sigma->0) =      -14.06155830


--------------------------------------------------------------------------------------------------------




--------------------------------------- Iteration      1(   4)  ---------------------------------------


     EDDAV:  cpu time    2.4592: real time    2.4651
       DOS:  cpu time    0.0007: real time    0.0007
    --------------------------------------------
      LOOP:  cpu time    2.4599: real time    2.4659

 eigenvalue-minimisations  :  9696
 total energy-change (2. order) :-0.5140336E-01  (-0.5140336E-01)
 number of electron      36.0000000 magnetization 
 augmentation part       36.0000000 magnetization 

 Free energy of the ion-electron system (eV)
  ---------------------------------------------------
  alpha Z        PSCENC =        45.77011789
  Ewald energy   TEWEN  =      5623.88722478
  -Hartree energ DENC   =     -9214.96631574
  -exchange      EXHF   =         0.00000000
  -V(xc)+E(xc)   XCENC  =       138.41006317
  PAW double counting   =      3345.42656771    -3694.17617221
  entropy T*S    EENTRO =        -0.00000000
  eigenvalues    EBANDS =      -309.76967943
  atomic energy  EATOM  =      4051.30523217
  Solvation  Ediel_sol  =         0.00000000
  ---------------------------------------------------
  free energy    TOTEN  =       -14.11296166 eV

  energy without entropy =      -14.11296166  energy(sigma->0) =      -14.11296166


--------------------------------------------------------------------------------------------------------




--------------------------------------- Iteration      1(   5)  ---------------------------------------


     EDDAV:  cpu time    2.0452: real time    2.0511
       DOS:  cpu time    0.0007: real time    0.0007
    CHARGE:  cpu time    0.0920: real time    0.0922
    MIXING:  cpu time    0.0014: real time    0.0016
    --------------------------------------------
      LOOP:  cpu time    2.1393: real time    2.1457

 eigenvalue-minimisations  :  8192
 total energy-change (2. order) :-0.6789257E-04  (-0.6789247E-04)
 number of electron      36.0000001 magnetization 
 augmentation part       14.2466503 magnetization 

 Broyden mixing:
  rms(total) = 0.99607E+00    rms(broyden)= 0.99606E+00
  rms(prec ) = 0.10309E+01
  weight for this iteration     100.00

 Free energy of the ion-electron system (eV)
  ---------------------------------------------------
  alpha Z        PSCENC =        45.77011789
  Ewald energy   TEWEN  =      5623.88722478
  -Hartree energ DENC   =     -9214.96631574
  -exchange      EXHF   =         0.00000000
  -V(xc)+E(xc)   XCENC  =       138.41006317
  PAW double counting   =      3345.42656771    -3694.17617221
  entropy T*S    EENTRO =        -0.00000000
  eigenvalues    EBANDS =      -309.76974732
  atomic energy  EATOM  =      4051.30523217
  Solvation  Ediel_sol  =         0.00000000
  ---------------------------------------------------
  free energy    TOTEN  =       -14.11302955 eV

  energy without entropy =      -14.11302955  energy(sigma->0) =      -14.11302955


--------------------------------------------------------------------------------------------------------




--------------------------------------- Iteration      1(   6)  ---------------------------------------


    POTLOK:  cpu time    0.0131: real time    0.0149
    SETDIJ:  cpu time    0.0989: real time    0.0991
     EDDAV:  cpu time    2.3420: real time    2.3476
       DOS:  cpu time    0.0007: real time    0.0007
    CHARGE:  cpu time    0.0863: real time    0.0865
    MIXING:  cpu time    0.0013: real time    0.0013
    --------------------------------------------
      LOOP:  cpu time    2.5423: real time    2.5502

 eigenvalue-minimisations  :  9472
 total energy-change (2. order) : 0.9057431E+00  (-0.4637852E+00)
 number of electron      36.0000001 magnetization 
 augmentation part       14.4903941 magnetization 

 Broyden mixing:
  rms(total) = 0.81070E+00    rms(broyden)= 0.81070E+00
  rms(prec ) = 0.81449E+00
  weight for this iteration     100.00

 eigenvalues of (default mixing * dielectric matrix)
  average eigenvalue GAMMA=   1.7866
  1.7866

 Free energy of the ion-electron system (eV)
  ---------------------------------------------------
  alpha Z        PSCENC =        45.77011789
  Ewald energy   TEWEN  =      5623.88722478
  -Hartree energ DENC   =     -9198.33586507
  -exchange      EXHF   =         0.00000000
  -V(xc)+E(xc)   XCENC  =       138.42109419
  PAW double counting   =      3599.34601859    -3942.99423683
  entropy T*S    EENTRO =        -0.00000000
  eigenvalues    EBANDS =      -330.60687215
  atomic energy  EATOM  =      4051.30523217
  Solvation  Ediel_sol  =         0.00000000
  ---------------------------------------------------
  free energy    TOTEN  =       -13.20728644 eV

  energy without entropy =      -13.20728644  energy(sigma->0) =      -13.20728644


--------------------------------------------------------------------------------------------------------




--------------------------------------- Iteration      1(   7)  ---------------------------------------


    POTLOK:  cpu time    0.0122: real time    0.0122
    SETDIJ:  cpu time    0.0981: real time    0.0984
     EDDAV:  cpu time    2.4822: real time    2.4882
       DOS:  cpu time    0.0008: real time    0.0008
    CHARGE:  cpu time    0.0871: real time    0.0873
    MIXING:  cpu time    0.0010: real time    0.0011
    --------------------------------------------
      LOOP:  cpu time    2.6814: real time    2.6879

 eigenvalue-minimisations  :  9888
 total energy-change (2. order) : 0.5917344E-01  (-0.4903494E-01)
 number of electron      36.0000001 magnetization 
 augmentation part       14.4356097 magnetization 

 Broyden mixing:
  rms(total) = 0.30887E+00    rms(broyden)= 0.30887E+00
  rms(prec ) = 0.31031E+00
  weight for this iteration     100.00

 eigenvalues of (default mixing * dielectric matrix)
  average eigenvalue GAMMA=   1.7150
  0.9402  2.4898

 Free energy of the ion-electron system (eV)
  ---------------------------------------------------
  alpha Z        PSCENC =        45.77011789
  Ewald energy   TEWEN  =      5623.88722478
  -Hartree energ DENC   =     -9201.76971404
  -exchange      EXHF   =         0.00000000
  -V(xc)+E(xc)   XCENC  =       138.87077646
  PAW double counting   =      4023.14009271    -4372.43001725
  entropy T*S    EENTRO =        -0.00000000
  eigenvalues    EBANDS =      -321.92182572
  atomic energy  EATOM  =      4051.30523217
  Solvation  Ediel_sol  =         0.00000000
  ---------------------------------------------------
  free energy    TOTEN  =       -13.14811300 eV

  energy without entropy =      -13.14811300  energy(sigma->0) =      -13.14811300


--------------------------------------------------------------------------------------------------------




--------------------------------------- Iteration      1(   8)  ---------------------------------------


    POTLOK:  cpu time    0.0123: real time    0.0155
    SETDIJ:  cpu time    0.0986: real time    0.0989
     EDDAV:  cpu time    1.8728: real time    1.8773
       DOS:  cpu time    0.0007: real time    0.0007
    CHARGE:  cpu time    0.0863: real time    0.0865
    MIXING:  cpu time    0.0008: real time    0.0008
    --------------------------------------------
      LOOP:  cpu time    2.0716: real time    2.0797

 eigenvalue-minimisations  :  7584
 total energy-change (2. order) : 0.1781214E-02  (-0.2632817E-02)
 number of electron      36.0000001 magnetization 
 augmentation part       14.4505757 magnetization 

 Broyden mixing:
  rms(total) = 0.33598E-01    rms(broyden)= 0.33598E-01
  rms(prec ) = 0.35495E-01
  weight for this iteration     100.00

 eigenvalues of (default mixing * dielectric matrix)
  average eigenvalue GAMMA=   1.5376
  2.4218  0.9206  1.2704

 Free energy of the ion-electron system (eV)
  ---------------------------------------------------
  alpha Z        PSCENC =        45.77011789
  Ewald energy   TEWEN  =      5623.88722478
  -Hartree energ DENC   =     -9199.15094546
  -exchange      EXHF   =         0.00000000
  -V(xc)+E(xc)   XCENC  =       138.86358249
  PAW double counting   =      4309.48691653    -4659.55221185
  entropy T*S    EENTRO =        -0.00000000
  eigenvalues    EBANDS =      -323.75624833
  atomic energy  EATOM  =      4051.30523217
  Solvation  Ediel_sol  =         0.00000000
  ---------------------------------------------------
  free energy    TOTEN  =       -13.14633179 eV

  energy without entropy =      -13.14633179  energy(sigma->0) =      -13.14633179


--------------------------------------------------------------------------------------------------------




--------------------------------------- Iteration      1(   9)  ---------------------------------------


    POTLOK:  cpu time    0.0124: real time    0.0130
    SETDIJ:  cpu time    0.0982: real time    0.0984
     EDDAV:  cpu time    2.2933: real time    2.2988
       DOS:  cpu time    0.0008: real time    0.0007
    CHARGE:  cpu time    0.0877: real time    0.0879
    MIXING:  cpu time    0.0009: real time    0.0009
    --------------------------------------------
      LOOP:  cpu time    2.4932: real time    2.4998

 eigenvalue-minimisations  :  9248
 total energy-change (2. order) : 0.1044604E-02  (-0.9451430E-03)
 number of electron      36.0000001 magnetization 
 augmentation part       14.4521009 magnetization 

 Broyden mixing:
  rms(total) = 0.11431E-01    rms(broyden)= 0.11431E-01
  rms(prec ) = 0.11854E-01
  weight for this iteration     100.00

 eigenvalues of (default mixing * dielectric matrix)
  average eigenvalue GAMMA=   1.7256
  2.3468  2.3468  0.9275  1.2815

 Free energy of the ion-electron system (eV)
  ---------------------------------------------------
  alpha Z        PSCENC =        45.77011789
  Ewald energy   TEWEN  =      5623.88722478
  -Hartree energ DENC   =     -9198.72803090
  -exchange      EXHF   =         0.00000000
  -V(xc)+E(xc)   XCENC  =       138.81819424
  PAW double counting   =      4317.69358619    -4667.67616584
  entropy T*S    EENTRO =        -0.00000000
  eigenvalues    EBANDS =      -324.21544570
  atomic energy  EATOM  =      4051.30523217
  Solvation  Ediel_sol  =         0.00000000
  ---------------------------------------------------
  free energy    TOTEN  =       -13.14528718 eV

  energy without entropy =      -13.14528718  energy(sigma->0) =      -13.14528718


--------------------------------------------------------------------------------------------------------




--------------------------------------- Iteration      1(  10)  ---------------------------------------


    POTLOK:  cpu time    0.0120: real time    0.0120
    SETDIJ:  cpu time    0.0981: real time    0.0983
     EDDAV:  cpu time    2.3940: real time    2.3998
       DOS:  cpu time    0.0007: real time    0.0007
    CHARGE:  cpu time    0.0859: real time    0.0861
    MIXING:  cpu time    0.0009: real time    0.0009
    --------------------------------------------
      LOOP:  cpu time    2.5916: real time    2.5978

 eigenvalue-minimisations  :  9536
 total energy-change (2. order) :-0.3247183E-03  (-0.1135694E-03)
 number of electron      36.0000001 magnetization 
 augmentation part       14.4505657 magnetization 

 Broyden mixing:
  rms(total) = 0.58853E-02    rms(broyden)= 0.58852E-02
  rms(prec ) = 0.61370E-02
  weight for this iteration     100.00

 eigenvalues of (default mixing * dielectric matrix)
  average eigenvalue GAMMA=   1.7022
  2.5766  2.5766  1.4858  0.9360  0.9360

 Free energy of the ion-electron system (eV)
  ---------------------------------------------------
  alpha Z        PSCENC =        45.77011789
  Ewald energy   TEWEN  =      5623.88722478
  -Hartree energ DENC   =     -9198.93101254
  -exchange      EXHF   =         0.00000000
  -V(xc)+E(xc)   XCENC  =       138.81766643
  PAW double counting   =      4302.78069501    -4652.80575164
  entropy T*S    EENTRO =        -0.00000000
  eigenvalues    EBANDS =      -323.96978400
  atomic energy  EATOM  =      4051.30523217
  Solvation  Ediel_sol  =         0.00000000
  ---------------------------------------------------
  free energy    TOTEN  =       -13.14561190 eV

  energy without entropy =      -13.14561190  energy(sigma->0) =      -13.14561190


--------------------------------------------------------------------------------------------------------




--------------------------------------- Iteration      1(  11)  ---------------------------------------


    POTLOK:  cpu time    0.0119: real time    0.0119
    SETDIJ:  cpu time    0.0980: real time    0.0982
     EDDAV:  cpu time    2.7362: real time    2.7428
       DOS:  cpu time    0.0007: real time    0.0007
    CHARGE:  cpu time    0.0878: real time    0.0880
    MIXING:  cpu time    0.0011: real time    0.0011
    --------------------------------------------
      LOOP:  cpu time    2.9356: real time    2.9427

 eigenvalue-minimisations  : 10720
 total energy-change (2. order) :-0.2766987E-04  (-0.1953349E-04)
 number of electron      36.0000001 magnetization 
 augmentation part       14.4512411 magnetization 

 Broyden mixing:
  rms(total) = 0.16169E-02    rms(broyden)= 0.16166E-02
  rms(prec ) = 0.17461E-02
  weight for this iteration     100.00

 eigenvalues of (default mixing * dielectric matrix)
  average eigenvalue GAMMA=   1.6637
  2.6430  2.6430  0.9902  0.9902  1.3579  1.3579

 Free energy of the ion-electron system (eV)
  ---------------------------------------------------
  alpha Z        PSCENC =        45.77011789
  Ewald energy   TEWEN  =      5623.88722478
  -Hartree energ DENC   =     -9199.07587975
  -exchange      EXHF   =         0.00000000
  -V(xc)+E(xc)   XCENC  =       138.82314639
  PAW double counting   =      4299.19349275    -4649.22427541
  entropy T*S    EENTRO =        -0.00000000
  eigenvalues    EBANDS =      -323.82469838
  atomic energy  EATOM  =      4051.30523217
  Solvation  Ediel_sol  =         0.00000000
  ---------------------------------------------------
  free energy    TOTEN  =       -13.14563957 eV

  energy without entropy =      -13.14563957  energy(sigma->0) =      -13.14563957


--------------------------------------------------------------------------------------------------------




--------------------------------------- Iteration      1(  12)  ---------------------------------------


    POTLOK:  cpu time    0.0120: real time    0.0141
    SETDIJ:  cpu time    0.0981: real time    0.0983
     EDDAV:  cpu time    2.7885: real time    2.7952
       DOS:  cpu time    0.0007: real time    0.0007
    CHARGE:  cpu time    0.0880: real time    0.0882
    MIXING:  cpu time    0.0010: real time    0.0010
    --------------------------------------------
      LOOP:  cpu time    2.9883: real time    2.9976

 eigenvalue-minimisations  : 10912
 total energy-change (2. order) :-0.1830371E-04  (-0.2069753E-05)
 number of electron      36.0000001 magnetization 
 augmentation part       14.4512707 magnetization 

 Broyden mixing:
  rms(total) = 0.64447E-03    rms(broyden)= 0.64386E-03
  rms(prec ) = 0.75733E-03
  weight for this iteration     100.00

 eigenvalues of (default mixing * dielectric matrix)
  average eigenvalue GAMMA=   1.7006
  2.5419  2.5419  2.1992  0.9631  0.9631  1.3728  1.3218

 Free energy of the ion-electron system (eV)
  ---------------------------------------------------
  alpha Z        PSCENC =        45.77011789
  Ewald energy   TEWEN  =      5623.88722478
  -Hartree energ DENC   =     -9199.16786252
  -exchange      EXHF   =         0.00000000
  -V(xc)+E(xc)   XCENC  =       138.82279056
  PAW double counting   =      4298.28338725    -4648.31585506
  entropy T*S    EENTRO =        -0.00000000
  eigenvalues    EBANDS =      -323.73069295
  atomic energy  EATOM  =      4051.30523217
  Solvation  Ediel_sol  =         0.00000000
  ---------------------------------------------------
  free energy    TOTEN  =       -13.14565788 eV

  energy without entropy =      -13.14565788  energy(sigma->0) =      -13.14565788


--------------------------------------------------------------------------------------------------------




--------------------------------------- Iteration      1(  13)  ---------------------------------------


    POTLOK:  cpu time    0.0121: real time    0.0141
    SETDIJ:  cpu time    0.0983: real time    0.0985
     EDDAV:  cpu time    2.5477: real time    2.5538
       DOS:  cpu time    0.0007: real time    0.0007
    CHARGE:  cpu time    0.0878: real time    0.0880
    MIXING:  cpu time    0.0009: real time    0.0009
    --------------------------------------------
      LOOP:  cpu time    2.7474: real time    2.7561

 eigenvalue-minimisations  : 10080
 total energy-change (2. order) :-0.1323114E-04  (-0.2295635E-06)
 number of electron      36.0000001 magnetization 
 augmentation part       14.4513508 magnetization 

 Broyden mixing:
  rms(total) = 0.26005E-03    rms(broyden)= 0.25853E-03
  rms(prec ) = 0.39350E-03
  weight for this iteration     100.00

 eigenvalues of (default mixing * dielectric matrix)
  average eigenvalue GAMMA=   1.6452
  3.0021  2.4615  2.0833  1.5135  1.2547  0.9465  0.9465  0.9537

 Free energy of the ion-electron system (eV)
  ---------------------------------------------------
  alpha Z        PSCENC =        45.77011789
  Ewald energy   TEWEN  =      5623.88722478
  -Hartree energ DENC   =     -9199.23796349
  -exchange      EXHF   =         0.00000000
  -V(xc)+E(xc)   XCENC  =       138.82324646
  PAW double counting   =      4298.82504984    -4648.85693759
  entropy T*S    EENTRO =        -0.00000000
  eigenvalues    EBANDS =      -323.66164115
  atomic energy  EATOM  =      4051.30523217
  Solvation  Ediel_sol  =         0.00000000
  ---------------------------------------------------
  free energy    TOTEN  =       -13.14567111 eV

  energy without entropy =      -13.14567111  energy(sigma->0) =      -13.14567111


--------------------------------------------------------------------------------------------------------




--------------------------------------- Iteration      1(  14)  ---------------------------------------


    POTLOK:  cpu time    0.0121: real time    0.0121
    SETDIJ:  cpu time    0.0979: real time    0.0981
     EDDAV:  cpu time    2.5740: real time    2.5802
       DOS:  cpu time    0.0007: real time    0.0007
    CHARGE:  cpu time    0.0886: real time    0.0888
    MIXING:  cpu time    0.0008: real time    0.0008
    --------------------------------------------
      LOOP:  cpu time    2.7741: real time    2.7808

 eigenvalue-minimisations  : 10176
 total energy-change (2. order) :-0.9333150E-05  (-0.7188032E-07)
 number of electron      36.0000001 magnetization 
 augmentation part       14.4513125 magnetization 

 Broyden mixing:
  rms(total) = 0.18157E-03    rms(broyden)= 0.17938E-03
  rms(prec ) = 0.29105E-03
  weight for this iteration     100.00

 eigenvalues of (default mixing * dielectric matrix)
  average eigenvalue GAMMA=   1.7831
  2.8610  2.8610  2.7116  2.0104  1.3866  1.3866  0.9432  0.9432  0.9442

 Free energy of the ion-electron system (eV)
  ---------------------------------------------------
  alpha Z        PSCENC =        45.77011789
  Ewald energy   TEWEN  =      5623.88722478
  -Hartree energ DENC   =     -9199.30041597
  -exchange      EXHF   =         0.00000000
  -V(xc)+E(xc)   XCENC  =       138.82364346
  PAW double counting   =      4298.39594215    -4648.42949506
  entropy T*S    EENTRO =        -0.00000000
  eigenvalues    EBANDS =      -323.59792985
  atomic energy  EATOM  =      4051.30523217
  Solvation  Ediel_sol  =         0.00000000
  ---------------------------------------------------
  free energy    TOTEN  =       -13.14568044 eV

  energy without entropy =      -13.14568044  energy(sigma->0) =      -13.14568044


--------------------------------------------------------------------------------------------------------




--------------------------------------- Iteration      1(  15)  ---------------------------------------


    POTLOK:  cpu time    0.0118: real time    0.0119
    SETDIJ:  cpu time    0.0978: real time    0.0981
     EDDAV:  cpu time    2.1739: real time    2.1792
       DOS:  cpu time    0.0007: real time    0.0007
    CHARGE:  cpu time    0.0870: real time    0.0872
    MIXING:  cpu time    0.0012: real time    0.0012
    --------------------------------------------
      LOOP:  cpu time    2.3725: real time    2.3782

 eigenvalue-minimisations  :  8736
 total energy-change (2. order) :-0.1954184E-04  (-0.1044019E-06)
 number of electron      36.0000001 magnetization 
 augmentation part       14.4513275 magnetization 

 Broyden mixing:
  rms(total) = 0.19561E-03    rms(broyden)= 0.19357E-03
  rms(prec ) = 0.21213E-03
  weight for this iteration     100.00

 eigenvalues of (default mixing * dielectric matrix)
  average eigenvalue GAMMA=   1.7743
  3.7354  2.7522  2.1762  2.1762  1.4725  1.2888  1.2888  0.9477  0.9477  0.9574

 Free energy of the ion-electron system (eV)
  ---------------------------------------------------
  alpha Z        PSCENC =        45.77011789
  Ewald energy   TEWEN  =      5623.88722478
  -Hartree energ DENC   =     -9199.42859829
  -exchange      EXHF   =         0.00000000
  -V(xc)+E(xc)   XCENC  =       138.82400766
  PAW double counting   =      4298.77193946    -4648.80439947
  entropy T*S    EENTRO =        -0.00000000
  eigenvalues    EBANDS =      -323.47122417
  atomic energy  EATOM  =      4051.30523217
  Solvation  Ediel_sol  =         0.00000000
  ---------------------------------------------------
  free energy    TOTEN  =       -13.14569998 eV

  energy without entropy =      -13.14569998  energy(sigma->0) =      -13.14569998


--------------------------------------------------------------------------------------------------------




--------------------------------------- Iteration      1(  16)  ---------------------------------------


    POTLOK:  cpu time    0.0117: real time    0.0117
    SETDIJ:  cpu time    0.0979: real time    0.0981
     EDDAV:  cpu time    2.5601: real time    2.5663
       DOS:  cpu time    0.0007: real time    0.0007
    CHARGE:  cpu time    0.0857: real time    0.0859
    MIXING:  cpu time    0.0009: real time    0.0009
    --------------------------------------------
      LOOP:  cpu time    2.7571: real time    2.7637

 eigenvalue-minimisations  : 10176
 total energy-change (2. order) :-0.4818392E-05  (-0.1192914E-07)
 number of electron      36.0000001 magnetization 
 augmentation part       14.4513306 magnetization 

 Broyden mixing:
  rms(total) = 0.15874E-03    rms(broyden)= 0.15622E-03
  rms(prec ) = 0.16467E-03
  weight for this iteration     100.00

 eigenvalues of (default mixing * dielectric matrix)
  average eigenvalue GAMMA=   2.2106
  7.2169  3.2772  2.6939  2.4062  2.0644  1.4703  1.3417  0.9381  0.9381  1.0279
  0.9413

 Free energy of the ion-electron system (eV)
  ---------------------------------------------------
  alpha Z        PSCENC =        45.77011789
  Ewald energy   TEWEN  =      5623.88722478
  -Hartree energ DENC   =     -9199.46668805
  -exchange      EXHF   =         0.00000000
  -V(xc)+E(xc)   XCENC  =       138.82416672
  PAW double counting   =      4298.41337383    -4648.44523501
  entropy T*S    EENTRO =        -0.00000000
  eigenvalues    EBANDS =      -323.43389713
  atomic energy  EATOM  =      4051.30523217
  Solvation  Ediel_sol  =         0.00000000
  ---------------------------------------------------
  free energy    TOTEN  =       -13.14570480 eV

  energy without entropy =      -13.14570480  energy(sigma->0) =      -13.14570480


--------------------------------------------------------------------------------------------------------




--------------------------------------- Iteration      1(  17)  ---------------------------------------


    POTLOK:  cpu time    0.0117: real time    0.0117
    SETDIJ:  cpu time    0.0979: real time    0.0981
     EDDAV:  cpu time    2.0239: real time    2.0287
       DOS:  cpu time    0.0008: real time    0.0007
    CHARGE:  cpu time    0.0856: real time    0.0858
    MIXING:  cpu time    0.0010: real time    0.0010
    --------------------------------------------
      LOOP:  cpu time    2.2208: real time    2.2262

 eigenvalue-minimisations  :  8288
 total energy-change (2. order) :-0.4252393E-05  (-0.1976469E-07)
 number of electron      36.0000001 magnetization 
 augmentation part       14.4513324 magnetization 

 Broyden mixing:
  rms(total) = 0.46594E-04    rms(broyden)= 0.37139E-04
  rms(prec ) = 0.39835E-04
[...]
     13      -8.1271      2.00000
     14      -7.6361      2.00000
     15      -6.4595      2.00000
     16      -5.5400      2.00000
     17      -5.1445      2.00000
     18      -4.3238      2.00000
     19       1.1378      0.00000
     20       1.2490      0.00000
     21       1.3969      0.00000
     22       2.7499      0.00000
     23       3.3796      0.00000
     24       4.5228      0.00000
     25       4.8605      0.00000
     26       5.3756      0.00000
     27       5.4648      0.00000
     28       6.0306      0.00000
     29       6.4193      0.00000
     30       6.5612      0.00000
     31       7.1321      0.00000
     32       7.4193      0.00000

 k-point    82 :      -0.4722    0.3611    0.0000
  band No.  band energies     occupation 
      1     -15.5934      2.00000
      2     -15.3203      2.00000
      3      -9.8706      2.00000
      4      -9.7428      2.00000
      5      -9.7142      2.00000
      6      -9.7067      2.00000
      7      -9.6201      2.00000
      8      -9.5862      2.00000
      9      -9.5621      2.00000
     10      -9.3568      2.00000
     11      -9.2865      2.00000
     12      -9.1645      2.00000
     13      -8.0909      2.00000
     14      -7.5256      2.00000
     15      -6.0356      2.00000
     16      -5.5799      2.00000
     17      -4.9630      2.00000
     18      -4.2258      2.00000
     19       0.5466      0.00000
     20       0.9761      0.00000
     21       1.3315      0.00000
     22       2.5850      0.00000
     23       3.7397      0.00000
     24       4.2842      0.00000
     25       4.7083      0.00000
     26       5.1862      0.00000
     27       5.3241      0.00000
     28       5.7174      0.00000
     29       6.5138      0.00000
     30       6.6840      0.00000
     31       7.1738      0.00000
     32       7.5964      0.00000

 k-point    83 :      -0.4167    0.3611    0.0000
  band No.  band energies     occupation 
      1     -15.6717      2.00000
      2     -15.3419      2.00000
      3      -9.9116      2.00000
      4      -9.7573      2.00000
      5      -9.7340      2.00000
      6      -9.7216      2.00000
      7      -9.6554      2.00000
      8      -9.5933      2.00000
      9      -9.5534      2.00000
     10      -9.3605      2.00000
     11      -9.2733      2.00000
     12      -9.1809      2.00000
     13      -7.9729      2.00000
     14      -7.3923      2.00000
     15      -5.7035      2.00000
     16      -5.6786      2.00000
     17      -4.7160      2.00000
     18      -4.1589      2.00000
     19       0.1445      0.00000
     20       0.7261      0.00000
     21       1.3354      0.00000
     22       2.5442      0.00000
     23       3.8370      0.00000
     24       4.2094      0.00000
     25       4.5041      0.00000
     26       4.9659      0.00000
     27       5.2409      0.00000
     28       5.5854      0.00000
     29       6.3266      0.00000
     30       6.9286      0.00000
     31       7.2870      0.00000
     32       7.3801      0.00000

 k-point    84 :      -0.3611    0.3611    0.0000
  band No.  band energies     occupation 
      1     -15.7434      2.00000
      2     -15.3668      2.00000
      3      -9.9426      2.00000
      4      -9.7797      2.00000
      5      -9.7622      2.00000
      6      -9.7219      2.00000
      7      -9.6848      2.00000
      8      -9.5880      2.00000
      9      -9.5466      2.00000
     10      -9.3522      2.00000
     11      -9.2687      2.00000
     12      -9.1983      2.00000
     13      -7.7873      2.00000
     14      -7.2531      2.00000
     15      -5.7721      2.00000
     16      -5.5015      2.00000
     17      -4.5716      2.00000
     18      -4.1113      2.00000
     19       0.0390      0.00000
     20       0.6335      0.00000
     21       1.3865      0.00000
     22       2.5895      0.00000
     23       3.6311      0.00000
     24       4.1156      0.00000
     25       4.4513      0.00000
     26       4.7106      0.00000
     27       5.0188      0.00000
     28       5.4844      0.00000
     29       6.1568      0.00000
     30       6.7673      0.00000
     31       7.0391      0.00000
     32       7.1909      0.00000

 k-point    85 :       0.4167    0.4167    0.0000
  band No.  band energies     occupation 
      1     -15.4793      2.00000
      2     -15.3063      2.00000
      3      -9.7974      2.00000
      4      -9.7302      2.00000
      5      -9.6909      2.00000
      6      -9.6794      2.00000
      7      -9.6219      2.00000
      8      -9.5651      2.00000
      9      -9.5403      2.00000
     10      -9.3187      2.00000
     11      -9.2870      2.00000
     12      -9.1757      2.00000
     13      -8.2070      2.00000
     14      -7.7042      2.00000
     15      -6.5154      2.00000
     16      -5.5536      2.00000
     17      -5.0895      2.00000
     18      -4.3866      2.00000
     19       1.1124      0.00000
     20       1.3030      0.00000
     21       1.3080      0.00000
     22       2.7840      0.00000
     23       3.3164      0.00000
     24       4.8534      0.00000
     25       4.9807      0.00000
     26       5.5803      0.00000
     27       5.7301      0.00000
     28       6.3058      0.00000
     29       6.3253      0.00000
     30       6.7234      0.00000
     31       6.8647      0.00000
     32       7.0173      0.00000

 k-point    86 :       0.4722    0.4167    0.0000
  band No.  band energies     occupation 
      1     -15.5245      2.00000
      2     -15.3099      2.00000
      3      -9.8323      2.00000
      4      -9.7332      2.00000
      5      -9.6995      2.00000
      6      -9.6914      2.00000
      7      -9.6095      2.00000
      8      -9.5565      2.00000
      9      -9.5494      2.00000
     10      -9.3567      2.00000
     11      -9.2925      2.00000
     12      -9.1821      2.00000
     13      -8.2658      2.00000
     14      -7.6753      2.00000
     15      -6.1251      2.00000
     16      -5.5057      2.00000
     17      -4.9786      2.00000
     18      -4.3174      2.00000
     19       0.4890      0.00000
     20       0.9996      0.00000
     21       1.2289      0.00000
     22       2.5487      0.00000
     23       3.7592      0.00000
     24       4.7555      0.00000
     25       4.9865      0.00000
     26       5.5035      0.00000
     27       5.5422      0.00000
     28       6.1121      0.00000
     29       6.3902      0.00000
     30       6.7774      0.00000
     31       6.9154      0.00000
     32       7.2160      0.00000

 k-point    87 :      -0.4722    0.4167    0.0000
  band No.  band energies     occupation 
      1     -15.5753      2.00000
      2     -15.3180      2.00000
      3      -9.8643      2.00000
      4      -9.7363      2.00000
      5      -9.7189      2.00000
      6      -9.6831      2.00000
      7      -9.6178      2.00000
      8      -9.5896      2.00000
      9      -9.5479      2.00000
     10      -9.3822      2.00000
     11      -9.2740      2.00000
     12      -9.1835      2.00000
     13      -8.2448      2.00000
     14      -7.6098      2.00000
     15      -5.8057      2.00000
     16      -5.5685      2.00000
     17      -4.7899      2.00000
     18      -4.2574      2.00000
     19       0.0582      0.00000
     20       0.7316      0.00000
     21       1.2087      0.00000
     22       2.4495      0.00000
     23       4.1655      0.00000
     24       4.4971      0.00000
     25       4.8499      0.00000
     26       5.4479      0.00000
     27       5.4534      0.00000
     28       5.8329      0.00000
     29       6.4082      0.00000
     30       6.9242      0.00000
     31       7.0640      0.00000
     32       7.4238      0.00000

 k-point    88 :      -0.4167    0.4167    0.0000
  band No.  band energies     occupation 
      1     -15.6262      2.00000
      2     -15.3294      2.00000
      3      -9.8907      2.00000
      4      -9.7384      2.00000
      5      -9.7335      2.00000
      6      -9.6891      2.00000
      7      -9.6601      2.00000
      8      -9.5910      2.00000
      9      -9.5490      2.00000
     10      -9.3756      2.00000
     11      -9.2681      2.00000
     12      -9.1830      2.00000
     13      -8.1438      2.00000
     14      -7.5095      2.00000
     15      -5.6479      2.00000
     16      -5.6459      2.00000
     17      -4.6781      2.00000
     18      -4.2088      2.00000
     19      -0.0707      0.00000
     20       0.6236      0.00000
     21       1.2477      0.00000
     22       2.4599      0.00000
     23       4.0982      0.00000
     24       4.5135      0.00000
     25       4.5649      0.00000
     26       5.2202      0.00000
     27       5.5086      0.00000
     28       5.6798      0.00000
     29       6.3660      0.00000
     30       7.0495      0.00000
     31       7.2319      0.00000
     32       7.4946      0.00000

 k-point    89 :       0.4722    0.4722    0.0000
  band No.  band energies     occupation 
      1     -15.5381      2.00000
      2     -15.3127      2.00000
      3      -9.8458      2.00000
      4      -9.7395      2.00000
      5      -9.7053      2.00000
      6      -9.6717      2.00000
      7      -9.5985      2.00000
      8      -9.5705      2.00000
      9      -9.5438      2.00000
     10      -9.3944      2.00000
     11      -9.2753      2.00000
     12      -9.1986      2.00000
     13      -8.3353      2.00000
     14      -7.6952      2.00000
     15      -5.8460      2.00000
     16      -5.5125      2.00000
     17      -4.8120      2.00000
     18      -4.3029      2.00000
     19       0.0275      0.00000
     20       0.7445      0.00000
     21       1.1503      0.00000
     22       2.4149      0.00000
     23       4.2337      0.00000
     24       4.9321      0.00000
     25       4.9326      0.00000
     26       5.2555      0.00000
     27       5.5477      0.00000
     28       6.1974      0.00000
     29       6.3225      0.00000
     30       6.6227      0.00000
     31       6.9714      0.00000
     32       7.6865      0.00000

 k-point    90 :      -0.4722    0.4722    0.0000
  band No.  band energies     occupation 
      1     -15.5558      2.00000
      2     -15.3155      2.00000
      3      -9.8568      2.00000
      4      -9.7411      2.00000
      5      -9.7127      2.00000
      6      -9.6526      2.00000
      7      -9.6143      2.00000
      8      -9.5901      2.00000
      9      -9.5415      2.00000
     10      -9.4008      2.00000
     11      -9.2673      2.00000
     12      -9.1986      2.00000
     13      -8.3285      2.00000
     14      -7.6732      2.00000
     15      -5.7248      2.00000
     16      -5.5396      2.00000
     17      -4.7338      2.00000
     18      -4.2831      2.00000
     19      -0.1314      0.00000
     20       0.6364      0.00000
     21       1.1451      0.00000
     22       2.3854      0.00000
     23       4.5351      0.00000
     24       4.6326      0.00000
     25       4.9720      0.00000
     26       5.1953      0.00000
     27       5.5568      0.00000
     28       5.9744      0.00000
     29       6.3986      0.00000
     30       6.6889      0.00000
     31       7.0437      0.00000
     32       7.7385      0.00000


--------------------------------------------------------------------------------------------------------


 soft charge-density along one line, spin component           1
         0         1         2         3         4         5         6         7         8         9
 total charge-density along one line
 
 pseudopotential strength for first ion, spin component:           1
 41.945  48.174   0.000   0.038  -0.000   0.000   0.052  -0.000
 48.174  55.331   0.000   0.044  -0.000   0.000   0.060  -0.000
  0.000   0.000   8.656   0.000  -0.000  11.726   0.000  -0.000
  0.038   0.044   0.000   8.647  -0.000   0.000  11.715  -0.000
 -0.000  -0.000  -0.000  -0.000   8.656  -0.000  -0.000  11.726
  0.000   0.000  11.726   0.000  -0.000  15.905   0.000  -0.000
  0.052   0.060   0.000  11.715  -0.000   0.000  15.891  -0.000
 -0.000  -0.000  -0.000  -0.000  11.726  -0.000  -0.000  15.905
 total augmentation occupancy for first ion, spin component:           1
 11.402  -7.181   0.000   2.595   0.000  -0.000  -0.994   0.000
 -7.181   5.260  -0.000  -2.306   0.000  -0.000   0.816  -0.000
  0.000   0.000   3.912   0.000   0.000  -1.185   0.000  -0.000
  2.595  -2.306   0.000   3.283   0.000  -0.000  -0.820   0.000
  0.000  -0.000   0.000   0.000   3.912  -0.000  -0.000  -1.185
 -0.000  -0.000  -1.185  -0.000  -0.000   0.408   0.000   0.000
 -0.994   0.816   0.000  -0.820  -0.000   0.000   0.261  -0.000
  0.000   0.000  -0.000   0.000  -1.185   0.000  -0.000   0.408


------------------------ aborting loop because EDIFF is reached ----------------------------------------


 


 total charge     
 
# of ion       s       p       d       tot
------------------------------------------
    1        1.326   2.408   0.000   3.734
    2        1.326   2.408   0.000   3.734
    3        0.515   0.458   9.804  10.778
    4        0.515   0.458   9.804  10.778
--------------------------------------------------
tot          3.682   5.733  19.609  29.024
 
    CHARGE:  cpu time    0.0868: real time    0.0870
    FORLOC:  cpu time    0.0012: real time    0.0012
    FORNL :  cpu time    0.1572: real time    0.1576
    STRESS:  cpu time    2.8999: real time    2.9069
    FORCOR:  cpu time    0.0110: real time    0.0110
    FORHAR:  cpu time    0.0032: real time    0.0033
    MIXING:  cpu time    0.0007: real time    0.0007
    OFIELD:  cpu time    0.0000: real time    0.0000

 ---------------------------------------------------------------------------------------------

         DFTD3 V3.0 Rev 1        
 IVDW         = 11
 DF pbe       
 parameters
 VDW_S6       =    1.0000
 VDW_S8       =    0.7220
 VDW_SR       =    1.2170
 rs18     =    1.0000
 alpha6   =   14.0000
 alpha8   =   16.0000
 k1-k3    =   16.0000    1.3333   -4.0000
 VDW_RADIUS   =   50.2022 A
 VDW_CNRADIUS =   21.1671 A
 Edisp (eV)   -0.64406

 E6    (eV) :    -0.2516
 E8    (eV) :    -0.3925
 % E8        : 60.94
    FORVDW:  cpu time    0.0142: real time    0.0143

  FORCE on cell =-STRESS in cart. coord.  units (eV):
  Direction    XX          YY          ZZ          XY          YZ          ZX
  --------------------------------------------------------------------------------------
  Alpha Z    45.77012    45.77012    45.77012
  Ewald    7387.32319  7387.32341 -9150.75993     0.00000     0.00001    -0.00000
  Hartree  8334.27960  8334.27964 -7469.06442     0.00000     0.00000    -0.00000
  E(xc)    -186.76630  -186.76630  -187.42001     0.00000    -0.00000     0.00000
  Local  -16004.84417-16004.84470 16326.42297    -0.00026    -0.00001     0.00000
  n-local    78.61297    82.79688    77.42461    -1.20774     0.14271     0.08312
  augment    45.99918    45.99945    46.34729     0.00024     0.00000    -0.00000
  Kinetic   294.42045   302.24401   311.36244    -2.25846     0.17164     0.09910
  Fock        0.00000     0.00000     0.00000     0.00000     0.00000     0.00000
  vdW        -0.89098    -0.89098    -0.10465    -0.00000     0.00000    -0.00000
  -------------------------------------------------------------------------------------
  Total      -0.09222    -0.09222    -0.02158    -0.00000     0.00000     0.00000
  in kB      -0.59803    -0.59803    -0.13995    -0.00000     0.00000     0.00000
  external pressure =       -0.45 kB  Pullay stress =        0.00 kB


 VOLUME and BASIS-vectors are now :
 -----------------------------------------------------------------------------
  energy-cutoff  :      500.00
  volume of cell :      247.06
      direct lattice vectors                 reciprocal lattice vectors
     3.889680290  0.000000000  0.000000000     0.257090538  0.148431292  0.000000000
    -1.944840145  3.368561944  0.000000000     0.000000000  0.296862583  0.000000000
     0.000000000  0.000000000 18.855800629     0.000000000  0.000000000  0.053034078

  length of vectors
     3.889680290  3.889680290 18.855800629     0.296862583  0.296862583  0.053034078


 FORCES acting on ions
    electron-ion (+dipol)            ewald-force                    non-local-force                 convergence-correction
 -----------------------------------------------------------------------------------------------
   -.351E-06 -.209E-04 0.726E+03   0.402E-07 -.228E-04 -.730E+03   -.324E-16 -.136E-16 0.401E+01   0.349E-11 -.105E-10 -.109E-05
   0.241E-06 0.210E-04 -.726E+03   -.402E-07 0.228E-04 0.730E+03   0.135E-16 0.129E-16 -.401E+01   -.350E-11 0.105E-10 0.109E-05
   -.129E-05 -.122E-05 -.920E+03   0.513E-07 -.294E-04 0.922E+03   0.930E-17 0.370E-16 -.190E+01   0.101E-11 -.304E-10 0.624E-06
   0.128E-05 0.123E-05 0.920E+03   -.513E-07 0.294E-04 -.922E+03   -.130E-16 -.193E-16 0.190E+01   -.579E-12 0.302E-10 -.624E-06
 -----------------------------------------------------------------------------------------------
   -.121E-06 0.604E-07 0.960E-06   -.585E-14 0.164E-13 -.114E-12   -.226E-16 0.170E-16 0.000E+00   0.430E-12 -.153E-12 -.267E-09
 
 
 POSITION                                       TOTAL-FORCE (eV/Angst)
 -----------------------------------------------------------------------------------
      0.00000      2.24571      7.85346         0.000000      0.000000      0.000573
      1.94484      1.12285     11.00234        -0.000000     -0.000000     -0.000573
      0.00000      2.24571     10.45240        -0.000000      0.000000      0.004518
      1.94484      1.12285      8.40340         0.000000     -0.000000     -0.004518
 -----------------------------------------------------------------------------------
    total drift:                               -0.000000      0.000000      0.000001


--------------------------------------------------------------------------------------------------------



  FREE ENERGIE OF THE ION-ELECTRON SYSTEM (eV)
  ---------------------------------------------------
  free  energy   TOTEN  =       -13.78977518 eV

  energy  without entropy=      -13.78977518  energy(sigma->0) =      -13.78977518
 


--------------------------------------------------------------------------------------------------------


    POTLOK:  cpu time    0.1095: real time    0.1100


--------------------------------------------------------------------------------------------------------


 writing wavefunctions
     LOOP+:  cpu time   56.8426: real time   56.9971
    4ORBIT:  cpu time    0.0000: real time    0.0000
 


 total charge     
 
# of ion       s       p       d       tot
------------------------------------------
    1        1.326   2.408   0.000   3.734
    2        1.326   2.408   0.000   3.734
    3        0.515   0.458   9.804  10.778
    4        0.515   0.458   9.804  10.778
--------------------------------------------------
tot          3.682   5.733  19.609  29.024
 

 total amount of memory used by VASP MPI-rank0   214945. kBytes
=======================================================================

   base      :      30000. kBytes
   nonl-proj :     164634. kBytes
   fftplans  :       4865. kBytes
   grid      :       6168. kBytes
   one-center:         62. kBytes
   wavefun   :       9216. kBytes
 
  
  
 General timing and accounting informations for this job:
 ========================================================
  
                  Total CPU time used (sec):       60.414
                            User time (sec):       59.547
                          System time (sec):        0.867
                         Elapsed time (sec):       60.706
  
                   Maximum memory used (kb):      408836.
                   Average memory used (kb):           0.
  
                          Minor page faults:        82928
                          Major page faults:            0
                 Voluntary context switches:          884
