   3   3   0   0
  0.7847161E+02  0.3899600E-09  0.3899600E-09  0.1787570E-08  0.5000000E-15
  1.000000000000000E-004
  CAR 
 unknown system                          
     12.92724743    -20.52509391  301     -5.34609403      1.00000000
    -20.525  0.0000E+00  0.0000E+00
    -20.414  0.0000E+00  0.0000E+00
    -20.302  0.0000E+00  0.0000E+00
    -20.191  0.0000E+00  0.0000E+00
    -20.079  0.0000E+00  0.0000E+00
    -19.968  0.0000E+00  0.0000E+00
    -19.856  0.0000E+00  0.0000E+00
    -19.745  0.0000E+00  0.0000E+00
    -19.633  0.0000E+00  0.0000E+00
    -19.522  0.0000E+00  0.0000E+00
    -19.410  0.0000E+00  0.0000E+00
    -19.299  0.2049E-19  0.2284E-20
    -19.187  0.6940E-10  0.7738E-11
    -19.075  0.2048E-04  0.2284E-05
    -18.964  0.2566E-02  0.2884E-03
    -18.852  0.6913E-02  0.1059E-02
    -18.741  0.8696E-02  0.2029E-02
    -18.629  0.1226E-01  0.3396E-02
    -18.518  0.3455E-01  0.7249E-02
    -18.406  0.5395E-01  0.1326E-01
    -18.295  0.6195E-03  0.1333E-01
    -18.183  0.1513E-08  0.1333E-01
    -18.072  0.0000E+00  0.1333E-01
    -17.960  0.0000E+00  0.1333E-01
    -17.849  0.0000E+00  0.1333E-01
    -17.737  0.0000E+00  0.1333E-01
    -17.626  0.0000E+00  0.1333E-01
    -17.514  0.0000E+00  0.1333E-01
    -17.403  0.0000E+00  0.1333E-01
    -17.291  0.0000E+00  0.1333E-01
    -17.180  0.0000E+00  0.1333E-01
    -17.068  0.0000E+00  0.1333E-01
    -16.957  0.0000E+00  0.1333E-01
    -16.845  0.0000E+00  0.1333E-01
    -16.734  0.0000E+00  0.1333E-01
    -16.622  0.0000E+00  0.1333E-01
    -16.511  0.0000E+00  0.1333E-01
    -16.399  0.0000E+00  0.1333E-01
    -16.288  0.0000E+00  0.1333E-01
    -16.176  0.0000E+00  0.1333E-01
    -16.065  0.0000E+00  0.1333E-01
    -15.953  0.0000E+00  0.1333E-01
    -15.842  0.0000E+00  0.1333E-01
    -15.730  0.0000E+00  0.1333E-01
    -15.619  0.0000E+00  0.1333E-01
    -15.507  0.0000E+00  0.1333E-01
    -15.396  0.0000E+00  0.1333E-01
    -15.284  0.0000E+00  0.1333E-01
    -15.173  0.0000E+00  0.1333E-01
    -15.061  0.0000E+00  0.1333E-01
    -14.950  0.0000E+00  0.1333E-01
    -14.838  0.0000E+00  0.1333E-01
    -14.727  0.0000E+00  0.1333E-01
    -14.615  0.0000E+00  0.1333E-01
    -14.504  0.0000E+00  0.1333E-01
    -14.392  0.0000E+00  0.1333E-01
    -14.281  0.0000E+00  0.1333E-01
    -14.169  0.0000E+00  0.1333E-01
    -14.058  0.0000E+00  0.1333E-01
    -13.946  0.0000E+00  0.1333E-01
    -13.835  0.0000E+00  0.1333E-01
    -13.723  0.0000E+00  0.1333E-01
    -13.612  0.0000E+00  0.1333E-01
    -13.500  0.0000E+00  0.1333E-01
    -13.389  0.0000E+00  0.1333E-01
    -13.277  0.0000E+00  0.1333E-01
    -13.166  0.0000E+00  0.1333E-01
    -13.054  0.0000E+00  0.1333E-01
    -12.943  0.0000E+00  0.1333E-01
    -12.831  0.0000E+00  0.1333E-01
    -12.720  0.0000E+00  0.1333E-01
    -12.608  0.0000E+00  0.1333E-01
    -12.497  0.0000E+00  0.1333E-01
    -12.385  0.0000E+00  0.1333E-01
    -12.274  0.0000E+00  0.1333E-01
    -12.162  0.6176E-13  0.1333E-01
    -12.051  0.9442E-06  0.1333E-01
    -11.939  0.2586E-02  0.1362E-01
    -11.827  0.3818E-01  0.1788E-01
    -11.716  0.6503E-01  0.2513E-01
    -11.604  0.4358E-01  0.2999E-01
    -11.493  0.1002E+00  0.4116E-01
    -11.381  0.4685E-01  0.4639E-01
    -11.270  0.2494E-02  0.4667E-01
    -11.158  0.6983E-06  0.4667E-01
    -11.047  0.3894E-13  0.4667E-01
    -10.935  0.0000E+00  0.4667E-01
    -10.824  0.0000E+00  0.4667E-01
    -10.712  0.0000E+00  0.4667E-01
    -10.601  0.0000E+00  0.4667E-01
    -10.489  0.0000E+00  0.4667E-01
    -10.378  0.0000E+00  0.4667E-01
    -10.266  0.0000E+00  0.4667E-01
    -10.155  0.0000E+00  0.4667E-01
    -10.043  0.0000E+00  0.4667E-01
     -9.932  0.0000E+00  0.4667E-01
     -9.820  0.0000E+00  0.4667E-01
     -9.709  0.0000E+00  0.4667E-01
     -9.597  0.0000E+00  0.4667E-01
     -9.486  0.0000E+00  0.4667E-01
     -9.374  0.0000E+00  0.4667E-01
     -9.263  0.0000E+00  0.4667E-01
     -9.151  0.0000E+00  0.4667E-01
     -9.040  0.0000E+00  0.4667E-01
     -8.928  0.7355E-17  0.4667E-01
     -8.817  0.5260E-08  0.4667E-01
     -8.705  0.4229E-03  0.4671E-01
     -8.594  0.1887E-01  0.4882E-01
     -8.482  0.1543E-01  0.5054E-01
     -8.371  0.8374E-02  0.5147E-01
     -8.259  0.6940E-02  0.5225E-01
     -8.148  0.6910E-02  0.5302E-01
     -8.036  0.3400E-02  0.5340E-01
     -7.925  0.4907E-02  0.5394E-01
     -7.813  0.6209E-02  0.5464E-01
     -7.702  0.6996E-02  0.5542E-01
     -7.590  0.9145E-02  0.5643E-01
     -7.479  0.7608E-02  0.5728E-01
     -7.367  0.7470E-02  0.5812E-01
     -7.256  0.7640E-02  0.5897E-01
     -7.144  0.8443E-02  0.5991E-01
     -7.033  0.1023E-01  0.6105E-01
     -6.921  0.1308E-01  0.6251E-01
     -6.810  0.1620E-01  0.6432E-01
     -6.698  0.2051E-01  0.6660E-01
     -6.587  0.1498E-01  0.6827E-01
     -6.475  0.1056E-01  0.6945E-01
     -6.364  0.9420E-02  0.7050E-01
     -6.252  0.7838E-02  0.7137E-01
     -6.141  0.9875E-02  0.7248E-01
     -6.029  0.8074E-02  0.7338E-01
     -5.918  0.1604E-01  0.7516E-01
     -5.806  0.3076E-01  0.7859E-01
     -5.695  0.4139E-01  0.8321E-01
     -5.583  0.2791E-01  0.8632E-01
     -5.472  0.3087E-02  0.8667E-01
     -5.360  0.1890E-05  0.8667E-01
     -5.249  0.2602E-12  0.8667E-01
     -5.137  0.0000E+00  0.8667E-01
     -5.026  0.0000E+00  0.8667E-01
     -4.914  0.0000E+00  0.8667E-01
     -4.802  0.0000E+00  0.8667E-01
     -4.691  0.0000E+00  0.8667E-01
     -4.579  0.0000E+00  0.8667E-01
     -4.468  0.0000E+00  0.8667E-01
     -4.356  0.0000E+00  0.8667E-01
     -4.245  0.0000E+00  0.8667E-01
     -4.133  0.0000E+00  0.8667E-01
     -4.022  0.0000E+00  0.8667E-01
     -3.910  0.0000E+00  0.8667E-01
     -3.799  0.0000E+00  0.8667E-01
     -3.687  0.0000E+00  0.8667E-01
     -3.576  0.0000E+00  0.8667E-01
     -3.464  0.0000E+00  0.8667E-01
     -3.353  0.0000E+00  0.8667E-01
     -3.241  0.0000E+00  0.8667E-01
     -3.130  0.0000E+00  0.8667E-01
     -3.018  0.0000E+00  0.8667E-01
     -2.907  0.0000E+00  0.8667E-01
     -2.795  0.0000E+00  0.8667E-01
     -2.684  0.0000E+00  0.8667E-01
     -2.572  0.0000E+00  0.8667E-01
     -2.461  0.0000E+00  0.8667E-01
     -2.349  0.0000E+00  0.8667E-01
     -2.238  0.0000E+00  0.8667E-01
     -2.126  0.0000E+00  0.8667E-01
     -2.015  0.0000E+00  0.8667E-01
     -1.903  0.5839E-17  0.8667E-01
     -1.792  0.1683E-08  0.8667E-01
     -1.680  0.3920E-04  0.8667E-01
     -1.569  0.6368E-03  0.8674E-01
     -1.457  0.1047E-02  0.8686E-01
     -1.346  0.8951E-03  0.8696E-01
     -1.234  0.1398E-02  0.8711E-01
     -1.123  0.1160E-02  0.8724E-01
     -1.011  0.1630E-02  0.8743E-01
     -0.900  0.1812E-02  0.8763E-01
     -0.788  0.3358E-02  0.8800E-01
     -0.677  0.1011E-01  0.8913E-01
     -0.565  0.1411E-01  0.9070E-01
     -0.454  0.1061E-01  0.9189E-01
     -0.342  0.9125E-02  0.9290E-01
     -0.231  0.3785E-02  0.9333E-01
     -0.119  0.7068E-04  0.9333E-01
     -0.008  0.9570E-09  0.9333E-01
      0.104  0.1229E-17  0.9333E-01
      0.215  0.0000E+00  0.9333E-01
      0.327  0.0000E+00  0.9333E-01
      0.438  0.3892E-18  0.9333E-01
      0.550  0.3240E-09  0.9333E-01
      0.661  0.1952E-04  0.9334E-01
      0.773  0.5168E-03  0.9339E-01
      0.884  0.7096E-03  0.9347E-01
      0.996  0.7959E-03  0.9356E-01
      1.107  0.6231E-03  0.9363E-01
      1.219  0.1270E-02  0.9377E-01
      1.330  0.8179E-03  0.9386E-01
      1.442  0.8346E-03  0.9396E-01
      1.553  0.4859E-02  0.9450E-01
      1.665  0.1043E-01  0.9566E-01
      1.776  0.7961E-02  0.9655E-01
      1.888  0.5064E-02  0.9711E-01
      1.999  0.3797E-02  0.9754E-01
      2.111  0.5109E-02  0.9811E-01
      2.222  0.7535E-02  0.9895E-01
      2.334  0.1023E-01  0.1001E+00
      2.446  0.7864E-02  0.1010E+00
      2.557  0.6964E-02  0.1017E+00
      2.669  0.5706E-02  0.1024E+00
      2.780  0.6334E-02  0.1031E+00
      2.892  0.6793E-02  0.1038E+00
      3.003  0.9295E-02  0.1049E+00
      3.115  0.1416E-01  0.1065E+00
      3.226  0.1082E-01  0.1077E+00
      3.338  0.9156E-02  0.1087E+00
      3.449  0.9511E-02  0.1097E+00
      3.561  0.8344E-02  0.1107E+00
      3.672  0.1195E-01  0.1120E+00
      3.784  0.1614E-01  0.1138E+00
      3.895  0.1345E-01  0.1153E+00
      4.007  0.1769E-01  0.1173E+00
      4.118  0.2382E-01  0.1199E+00
      4.230  0.2399E-01  0.1226E+00
      4.341  0.1959E-01  0.1248E+00
      4.453  0.1783E-01  0.1268E+00
      4.564  0.1580E-01  0.1285E+00
      4.676  0.1665E-01  0.1304E+00
      4.787  0.2256E-01  0.1329E+00
      4.899  0.2019E-01  0.1352E+00
      5.010  0.1402E-01  0.1367E+00
      5.122  0.7703E-02  0.1376E+00
      5.233  0.7759E-02  0.1385E+00
      5.345  0.9378E-02  0.1395E+00
      5.456  0.9871E-02  0.1406E+00
      5.568  0.2008E-01  0.1428E+00
      5.679  0.1791E-01  0.1448E+00
      5.791  0.1451E-01  0.1465E+00
      5.902  0.1590E-01  0.1482E+00
      6.014  0.9844E-02  0.1493E+00
      6.125  0.1252E-01  0.1507E+00
      6.237  0.8462E-02  0.1517E+00
      6.348  0.8894E-02  0.1527E+00
      6.460  0.1381E-01  0.1542E+00
      6.571  0.1720E-01  0.1561E+00
      6.683  0.1526E-01  0.1578E+00
      6.794  0.1362E-01  0.1593E+00
      6.906  0.7763E-02  0.1602E+00
      7.017  0.8820E-02  0.1612E+00
      7.129  0.1395E-01  0.1627E+00
      7.240  0.1084E-01  0.1639E+00
      7.352  0.1427E-01  0.1655E+00
      7.463  0.1611E-01  0.1673E+00
      7.575  0.2152E-01  0.1697E+00
      7.686  0.2073E-01  0.1720E+00
      7.798  0.1185E-01  0.1734E+00
      7.909  0.8368E-02  0.1743E+00
      8.021  0.8467E-02  0.1752E+00
      8.132  0.1060E-01  0.1764E+00
      8.244  0.1480E-01  0.1781E+00
      8.355  0.1706E-01  0.1800E+00
      8.467  0.1567E-01  0.1817E+00
      8.578  0.2291E-01  0.1843E+00
      8.690  0.2019E-01  0.1865E+00
      8.801  0.1639E-01  0.1884E+00
      8.913  0.1972E-01  0.1906E+00
      9.024  0.1993E-01  0.1928E+00
      9.136  0.1611E-01  0.1946E+00
      9.247  0.1444E-01  0.1962E+00
      9.359  0.1426E-01  0.1978E+00
      9.471  0.9690E-02  0.1989E+00
      9.582  0.1384E-01  0.2004E+00
      9.694  0.1784E-01  0.2024E+00
      9.805  0.1644E-01  0.2042E+00
      9.917  0.1473E-01  0.2059E+00
     10.028  0.1410E-01  0.2074E+00
     10.140  0.1077E-01  0.2086E+00
     10.251  0.7471E-02  0.2095E+00
     10.363  0.1031E-01  0.2106E+00
     10.474  0.7575E-02  0.2115E+00
     10.586  0.4339E-02  0.2120E+00
     10.697  0.3204E-02  0.2123E+00
     10.809  0.2150E-02  0.2126E+00
     10.920  0.1433E-02  0.2127E+00
     11.032  0.1074E-02  0.2128E+00
     11.143  0.1366E-02  0.2130E+00
     11.255  0.1891E-02  0.2132E+00
     11.366  0.5959E-03  0.2133E+00
     11.478  0.6290E-03  0.2133E+00
     11.589  0.1651E-04  0.2133E+00
     11.701  0.9067E-10  0.2133E+00
     11.812  0.0000E+00  0.2133E+00
     11.924  0.0000E+00  0.2133E+00
     12.035  0.0000E+00  0.2133E+00
     12.147  0.0000E+00  0.2133E+00
     12.258  0.0000E+00  0.2133E+00
     12.370  0.0000E+00  0.2133E+00
     12.481  0.0000E+00  0.2133E+00
     12.593  0.0000E+00  0.2133E+00
     12.704  0.0000E+00  0.2133E+00
     12.816  0.0000E+00  0.2133E+00
     12.927  0.0000E+00  0.2133E+00
