Automatically generated mesh
      90
Reciprocal lattice
    0.02777777777778    0.02777777777778    0.00000000000000             6
    0.08333333333334    0.02777777777778    0.00000000000000            12
    0.13888888888889    0.02777777777778    0.00000000000000            12
    0.19444444444444    0.02777777777778    0.00000000000000            12
    0.25000000000000    0.02777777777778    0.00000000000000            12
    0.30555555555556    0.02777777777778    0.00000000000000            12
    0.36111111111111    0.02777777777778    0.00000000000000            12
    0.41666666666666    0.02777777777778    0.00000000000000            12
    0.47222222222222    0.02777777777778    0.00000000000000            12
   -0.47222222222222    0.02777777777778    0.00000000000000            12
   -0.41666666666666    0.02777777777778    0.00000000000000            12
   -0.36111111111111    0.02777777777778    0.00000000000000            12
   -0.30555555555556    0.02777777777778    0.00000000000000            12
   -0.25000000000000    0.02777777777778    0.00000000000000            12
   -0.19444444444444    0.02777777777778    0.00000000000000            12
   -0.13888888888889    0.02777777777778    0.00000000000000            12
   -0.08333333333334    0.02777777777778    0.00000000000000            12
   -0.02777777777778    0.02777777777778    0.00000000000000             6
    0.08333333333334    0.08333333333334    0.00000000000000             6
    0.13888888888889    0.08333333333334    0.00000000000000            12
    0.19444444444444    0.08333333333334    0.00000000000000            12
    0.25000000000000    0.08333333333334    0.00000000000000            12
    0.30555555555556    0.08333333333334    0.00000000000000            12
    0.36111111111111    0.08333333333334    0.00000000000000            12
    0.41666666666666    0.08333333333334    0.00000000000000            12
    0.47222222222222    0.08333333333334    0.00000000000000            12
   -0.47222222222222    0.08333333333334    0.00000000000000            12
   -0.41666666666666    0.08333333333334    0.00000000000000            12
   -0.36111111111111    0.08333333333334    0.00000000000000            12
   -0.30555555555556    0.08333333333334    0.00000000000000            12
   -0.25000000000000    0.08333333333334    0.00000000000000            12
   -0.19444444444444    0.08333333333334    0.00000000000000            12
   -0.13888888888889    0.08333333333334    0.00000000000000            12
   -0.08333333333334    0.08333333333334    0.00000000000000             6
    0.13888888888889    0.13888888888889    0.00000000000000             6
    0.19444444444444    0.13888888888889    0.00000000000000            12
    0.25000000000000    0.13888888888889    0.00000000000000            12
    0.30555555555556    0.13888888888889    0.00000000000000            12
    0.36111111111111    0.13888888888889    0.00000000000000            12
    0.41666666666666    0.13888888888889    0.00000000000000            12
    0.47222222222222    0.13888888888889    0.00000000000000            12
   -0.47222222222222    0.13888888888889    0.00000000000000            12
   -0.41666666666666    0.13888888888889    0.00000000000000            12
   -0.36111111111111    0.13888888888889    0.00000000000000            12
   -0.30555555555556    0.13888888888889    0.00000000000000            12
   -0.25000000000000    0.13888888888889    0.00000000000000            12
   -0.19444444444444    0.13888888888889    0.00000000000000            12
   -0.13888888888889    0.13888888888889    0.00000000000000             6
    0.19444444444444    0.19444444444444    0.00000000000000             6
    0.25000000000000    0.19444444444444    0.00000000000000            12
    0.30555555555556    0.19444444444444    0.00000000000000            12
    0.36111111111111    0.19444444444444    0.00000000000000            12
    0.41666666666666    0.19444444444444    0.00000000000000            12
    0.47222222222222    0.19444444444444    0.00000000000000            12
   -0.47222222222222    0.19444444444444    0.00000000000000            12
   -0.41666666666666    0.19444444444444    0.00000000000000            12
   -0.36111111111111    0.19444444444444    0.00000000000000            12
   -0.30555555555556    0.19444444444444    0.00000000000000            12
   -0.25000000000000    0.19444444444444    0.00000000000000            12
   -0.19444444444444    0.19444444444444    0.00000000000000             6
    0.25000000000000    0.25000000000000    0.00000000000000             6
    0.30555555555556    0.25000000000000    0.00000000000000            12
    0.36111111111111    0.25000000000000    0.00000000000000            12
    0.41666666666666    0.25000000000000    0.00000000000000            12
    0.47222222222222    0.25000000000000    0.00000000000000            12
   -0.47222222222222    0.25000000000000    0.00000000000000            12
   -0.41666666666666    0.25000000000000    0.00000000000000            12
   -0.36111111111111    0.25000000000000    0.00000000000000            12
   -0.30555555555556    0.25000000000000    0.00000000000000            12
   -0.25000000000000    0.25000000000000    0.00000000000000             6
    0.30555555555556    0.30555555555556    0.00000000000000             6
    0.36111111111111    0.30555555555556    0.00000000000000            12
    0.41666666666666    0.30555555555556    0.00000000000000            12
    0.47222222222222    0.30555555555556    0.00000000000000            12
   -0.47222222222222    0.30555555555556    0.00000000000000            12
   -0.41666666666666    0.30555555555556    0.00000000000000            12
   -0.36111111111111    0.30555555555556    0.00000000000000            12
   -0.30555555555556    0.30555555555556    0.00000000000000             6
    0.36111111111111    0.36111111111111    0.00000000000000             6
    0.41666666666666    0.36111111111111    0.00000000000000            12
    0.47222222222222    0.36111111111111    0.00000000000000            12
   -0.47222222222222    0.36111111111111    0.00000000000000            12
   -0.41666666666666    0.36111111111111    0.00000000000000            12
   -0.36111111111111    0.36111111111111    0.00000000000000             6
    0.41666666666666    0.41666666666666    0.00000000000000             6
    0.47222222222222    0.41666666666666    0.00000000000000            12
   -0.47222222222222    0.41666666666666    0.00000000000000            12
   -0.41666666666666    0.41666666666666    0.00000000000000             6
    0.47222222222222    0.47222222222222    0.00000000000000             6
   -0.47222222222222    0.47222222222222    0.00000000000000             6
