 vasp.6.1.2 22Jul20 (build Aug 13 2020 05:42:33) complex                        
  
 executed on             LinuxIFC date 2025.05.05  12:54:30
 running on   32 total cores
 distrk:  each k-point on   32 cores,    1 groups
 distr:  one band on NCORE=   1 cores,   32 groups


--------------------------------------------------------------------------------------------------------


 INCAR:
 POTCAR:    PAW_PBE Cd 06Sep2000                  
 POTCAR:    PAW_PBE Cl 06Sep2000                  
 -----------------------------------------------------------------------------
|                                                                             |
|           W    W    AA    RRRRR   N    N  II  N    N   GGGG   !!!           |
|           W    W   A  A   R    R  NN   N  II  NN   N  G    G  !!!           |
|           W    W  A    A  R    R  N N  N  II  N N  N  G       !!!           |
|           W WW W  AAAAAA  RRRRR   N  N N  II  N  N N  G  GGG   !            |
|           WW  WW  A    A  R   R   N   NN  II  N   NN  G    G                |
|           W    W  A    A  R    R  N    N  II  N    N   GGGG   !!!           |
|                                                                             |
|     For optimal performance we recommend to set                             |
|       NCORE = 4 - approx SQRT(number of cores).                             |
|     NCORE specifies how many cores store one orbital (NPAR=cpu/NCORE).      |
|     This setting can greatly improve the performance of VASP for DFT.       |
|     The default, NCORE=1 might be grossly inefficient on modern             |
|     multi-core architectures or massively parallel machines. Do your        |
|     own testing!!!!                                                         |
|     Unfortunately you need to use the default for GW and RPA                |
|     calculations (for HF NCORE is supported but not extensively tested      |
|     yet).                                                                   |
|                                                                             |
 -----------------------------------------------------------------------------

 POTCAR:    PAW_PBE Cd 06Sep2000                  
   SHA256 =  8b7ca71966beae5276c8bb910adb3ecc013a3354c27473914c94cd54c83be4f7 Cd/POTCAR             
   COPYR  = (c) Copyright 06Sep2000 Georg Kresse                                                    
   COPYR  = This file is part of the software VASP. Any use, copying, and all other rights are regul
   COPYR  = If you do not have a valid VASP license, you may not use, copy or distribute this file. 
   VRHFIN =Cd : s2 d10                                                                              
   LEXCH  = PE                                                                                      
   EATOM  =  1293.1815 eV,   95.0462 Ry                                                             
                                                                                                    
   TITEL  = PAW_PBE Cd 06Sep2000                                                                    
   LULTRA =        F    use ultrasoft PP ?                                                          
   IUNSCR =        1    unscreen: 0-lin 1-nonlin 2-no                                               
   RPACOR =    2.000    partial core radius                                                         
   POMASS =  112.411; ZVAL   =   12.000    mass and valenz                                          
   RCORE  =    2.300    outmost cutoff radius                                                       
   RWIGS  =    2.980; RWIGS  =    1.577    wigner-seitz radius (au A)                               
   ENMAX  =  274.336; ENMIN  =  205.752 eV                                                          
   RCLOC  =    2.054    cutoff for local pot                                                        
   LCOR   =        T    correct aug charges                                                         
   LPAW   =        T    paw PP                                                                      
   EAUG   =  456.106                                                                                
   DEXC   =    0.000                                                                                
   RMAX   =    2.358    core radius for proj-oper                                                   
   RAUG   =    1.300    factor for augmentation sphere                                              
   RDEP   =    2.450    radius for radial grids                                                     
   RDEPT  =    1.955    core radius for aug-charge                                                  
                                                                                                    
   Atomic configuration                                                                             
   12 entries                                                                                       
     n  l   j            E        occ.                                                              
     1  0  0.50    -26519.7817   2.0000                                                             
     2  0  0.50     -3936.9612   2.0000                                                             
     2  1  1.50     -3532.2230   6.0000                                                             
     3  0  0.50      -733.7908   2.0000                                                             
     3  1  1.50      -601.0792   6.0000                                                             
     3  2  2.50      -393.5307  10.0000                                                             
     4  0  0.50      -105.8977   2.0000                                                             
     4  1  1.50       -66.9488   6.0000                                                             
     4  2  2.50       -11.7331  10.0000                                                             
     5  0  0.50        -5.6592   2.0000                                                             
     5  1  0.50        -1.3606   0.0000                                                             
     4  3  2.50        -1.3606   0.0000                                                             
   Description                                                                                      
     l       E           TYP  RCUT    TYP  RCUT                                                     
     2    -11.7331479     23  2.300                                                                 
     2    -13.0937305     23  2.300                                                                 
     0     -5.6591502     23  2.300                                                                 
     0     -1.5561433     23  2.300                                                                 
     1     -2.7211652     23  2.300                                                                 
     1      8.3548275     23  2.300                                                                 
  local pseudopotential read in
  partial core-charges read in
  partial kinetic energy density read in
  atomic valenz-charges read in
  non local Contribution for L=           2  read in
    real space projection operators read in
  non local Contribution for L=           2  read in
    real space projection operators read in
  non local Contribution for L=           0  read in
    real space projection operators read in
  non local Contribution for L=           0  read in
    real space projection operators read in
  non local Contribution for L=           1  read in
    real space projection operators read in
  non local Contribution for L=           1  read in
    real space projection operators read in
    PAW grid and wavefunctions read in
 
   number of l-projection  operators is LMAX  =           6
   number of lm-projection operators is LMMAX =          18
 
 POTCAR:    PAW_PBE Cl 06Sep2000                  
   SHA256 =  9f1b6e6ed4247ac726a768b330d26d7667cc3c95a39ff49c1d064c2d9dcce931 Cl/POTCAR             
   COPYR  = (c) Copyright 06Sep2000 Georg Kresse                                                    
   COPYR  = This file is part of the software VASP. Any use, copying, and all other rights are regul
   COPYR  = If you do not have a valid VASP license, you may not use, copy or distribute this file. 
   VRHFIN =Cl: s2p5                                                                                 
   LEXCH  = PE                                                                                      
   EATOM  =   409.7259 eV,   30.1140 Ry                                                             
                                                                                                    
   TITEL  = PAW_PBE Cl 06Sep2000                                                                    
   LULTRA =        F    use ultrasoft PP ?                                                          
   IUNSCR =        1    unscreen: 0-lin 1-nonlin 2-no                                               
   RPACOR =    1.500    partial core radius                                                         
   POMASS =   35.453; ZVAL   =    7.000    mass and valenz                                          
   RCORE  =    1.900    outmost cutoff radius                                                       
   RWIGS  =    2.100; RWIGS  =    1.111    wigner-seitz radius (au A)                               
   ENMAX  =  262.472; ENMIN  =  196.854 eV                                                          
   ICORE  =        2    local potential                                                             
   LCOR   =        T    correct aug charges                                                         
   LPAW   =        T    paw PP                                                                      
   EAUG   =  356.192                                                                                
   DEXC   =    0.000                                                                                
   RMAX   =    1.945    core radius for proj-oper                                                   
   RAUG   =    1.300    factor for augmentation sphere                                              
   RDEP   =    2.020    radius for radial grids                                                     
   RDEPT  =    1.678    core radius for aug-charge                                                  
                                                                                                    
   Atomic configuration                                                                             
    6 entries                                                                                       
     n  l   j            E        occ.                                                              
     1  0  0.50     -2751.1850   2.0000                                                             
     2  0  0.50      -252.6861   2.0000                                                             
     2  1  1.50      -191.6157   6.0000                                                             
     3  0  0.50       -20.6916   2.0000                                                             
     3  1  0.50        -8.5949   5.0000                                                             
     3  2  1.50        -8.1635   0.0000                                                             
   Description                                                                                      
     l       E           TYP  RCUT    TYP  RCUT                                                     
     0    -20.6915656     23  1.900                                                                 
     0    -22.0521482     23  1.900                                                                 
     1     -8.5948577     23  1.900                                                                 
     1     -5.3847331     23  1.900                                                                 
     2     -8.1634956     23  1.900                                                                 
  local pseudopotential read in
  partial core-charges read in
  partial kinetic energy density read in
  atomic valenz-charges read in
  non local Contribution for L=           0  read in
    real space projection operators read in
  non local Contribution for L=           0  read in
    real space projection operators read in
  non local Contribution for L=           1  read in
    real space projection operators read in
  non local Contribution for L=           1  read in
    real space projection operators read in
    PAW grid and wavefunctions read in
 
   number of l-projection  operators is LMAX  =           4
   number of lm-projection operators is LMMAX =           8
 
  PAW_PBE Cd 06Sep2000                  :
 energy of atom  1       EATOM=-1293.1815
 kinetic energy error for atom=    0.0063 (will be added to EATOM!!)
  PAW_PBE Cl 06Sep2000                  :
 energy of atom  2       EATOM= -409.7259
 kinetic energy error for atom=    0.0030 (will be added to EATOM!!)
 
 
 POSCAR: CdCl2
  positions in cartesian coordinates
  No initial velocities read in
 exchange correlation table for  LEXCH =        8
   RHO(1)=    0.500       N(1)  =     2000
   RHO(2)=  100.500       N(2)  =     4000
 


--------------------------------------------------------------------------------------------------------


 ion  position               nearest neighbor table
   1  0.000  0.000  0.500-   3 2.67   3 2.67   2 2.67   2 2.67   3 2.67   2 2.67
   2  0.667  0.333  0.580-   1 2.67   1 2.67   1 2.67
   3  0.333  0.667  0.420-   1 2.67   1 2.67   1 2.67
 
  LATTYP: Found a hexagonal cell.
 ALAT       =     3.8996000290
 C/A-ratio  =     4.5839829377
  
  Lattice vectors:
  
 A1 = (   3.8996000290,   0.0000000000,   0.0000000000)
 A2 = (  -1.9498000145,   3.3771526897,   0.0000000000)
 A3 = (   0.0000000000,   0.0000000000,  17.8756999969)


Analysis of symmetry for initial positions (statically):
=====================================================================
 Subroutine PRICEL returns:
 Original cell was already a primitive cell.
 

 Routine SETGRP: Setting up the symmetry group for a 
 hexagonal supercell.


 Subroutine GETGRP returns: Found 12 space group operations
 (whereof 12 operations were pure point group operations)
 out of a pool of 24 trial point group operations.


The static configuration has the point symmetry D_3d.


Analysis of symmetry for dynamics (positions and initial velocities):
=====================================================================
 Subroutine PRICEL returns:
 Original cell was already a primitive cell.
 

 Routine SETGRP: Setting up the symmetry group for a 
 hexagonal supercell.


 Subroutine GETGRP returns: Found 12 space group operations
 (whereof 12 operations were pure point group operations)
 out of a pool of 24 trial point group operations.


The dynamic configuration has the point symmetry D_3d.


 Subroutine INISYM returns: Found 12 space group operations
 (whereof 12 operations are pure point group operations),
 and found     1 'primitive' translations


----------------------------------------------------------------------------------------

                                     Primitive cell                                     

  volume of cell :     235.4148

  direct lattice vectors                    reciprocal lattice vectors
     3.899600029  0.000000000  0.000000000     0.256436556  0.148053714  0.000000000
    -1.949800015  3.377152690  0.000000000     0.000000000  0.296107429  0.000000000
     0.000000000  0.000000000 17.875699997     0.000000000  0.000000000  0.055941865

  length of vectors
     3.899600029  3.899600029 17.875699997     0.296107429  0.296107429  0.055941865

  position of ions in fractional coordinates (direct lattice)
     0.000000000  0.000000000  0.500000000
     0.666666687  0.333333343  0.580440000
     0.333333314  0.666666657  0.419560000

  ion indices of the primitive-cell ions
   primitive index   ion index
                 1           1
                 2           2
                 3           3

----------------------------------------------------------------------------------------

 
 
 KPOINTS: K-Spacing Value to Generate K-Mesh: 0.02

Automatic generation of k-mesh.
Space group operators:
 irot       det(A)        alpha          n_x          n_y          n_z        tau_x        tau_y        tau_z
    1     1.000000     0.000001     1.000000     0.000000     0.000000     0.000000     0.000000     0.000000
    2    -1.000000     0.000001     1.000000     0.000000     0.000000     0.000000     0.000000     0.000000
    3     1.000000   120.000000     0.000000     0.000000    -1.000000     0.000000     0.000000     0.000000
    4    -1.000000   120.000000     0.000000     0.000000    -1.000000     0.000000     0.000000     0.000000
    5     1.000000   120.000000     0.000000     0.000000     1.000000     0.000000     0.000000     0.000000
    6    -1.000000   120.000000     0.000000     0.000000     1.000000     0.000000     0.000000     0.000000
    7     1.000000   180.000000     1.000000     0.000000     0.000000     0.000000     0.000000     0.000000
    8    -1.000000   180.000000     1.000000     0.000000     0.000000     0.000000     0.000000     0.000000
    9     1.000000   180.000000     0.500000    -0.866025     0.000000     0.000000     0.000000     0.000000
   10    -1.000000   180.000000     0.500000    -0.866025     0.000000     0.000000     0.000000     0.000000
   11     1.000000   180.000000    -0.500000    -0.866025     0.000000     0.000000     0.000000     0.000000
   12    -1.000000   180.000000    -0.500000    -0.866025     0.000000     0.000000     0.000000     0.000000
 
 Subroutine IBZKPT returns following result:
 ===========================================
 
 Found     90 irreducible k-points:
 
 Following reciprocal coordinates:
            Coordinates               Weight
  0.027778  0.027778  0.000000      6.000000
  0.083333  0.027778  0.000000     12.000000
  0.138889  0.027778  0.000000     12.000000
  0.194444  0.027778  0.000000     12.000000
  0.250000  0.027778  0.000000     12.000000
  0.305556  0.027778  0.000000     12.000000
  0.361111  0.027778  0.000000     12.000000
  0.416667  0.027778  0.000000     12.000000
  0.472222  0.027778  0.000000     12.000000
 -0.472222  0.027778  0.000000     12.000000
 -0.416667  0.027778  0.000000     12.000000
 -0.361111  0.027778  0.000000     12.000000
 -0.305556  0.027778  0.000000     12.000000
 -0.250000  0.027778  0.000000     12.000000
 -0.194444  0.027778  0.000000     12.000000
 -0.138889  0.027778  0.000000     12.000000
 -0.083333  0.027778  0.000000     12.000000
 -0.027778  0.027778  0.000000      6.000000
  0.083333  0.083333  0.000000      6.000000
  0.138889  0.083333  0.000000     12.000000
  0.194444  0.083333  0.000000     12.000000
  0.250000  0.083333  0.000000     12.000000
  0.305556  0.083333  0.000000     12.000000
  0.361111  0.083333  0.000000     12.000000
  0.416667  0.083333  0.000000     12.000000
  0.472222  0.083333  0.000000     12.000000
 -0.472222  0.083333  0.000000     12.000000
 -0.416667  0.083333  0.000000     12.000000
 -0.361111  0.083333  0.000000     12.000000
 -0.305556  0.083333  0.000000     12.000000
 -0.250000  0.083333  0.000000     12.000000
 -0.194444  0.083333  0.000000     12.000000
 -0.138889  0.083333  0.000000     12.000000
 -0.083333  0.083333  0.000000      6.000000
  0.138889  0.138889  0.000000      6.000000
  0.194444  0.138889  0.000000     12.000000
  0.250000  0.138889  0.000000     12.000000
  0.305556  0.138889  0.000000     12.000000
  0.361111  0.138889  0.000000     12.000000
  0.416667  0.138889  0.000000     12.000000
  0.472222  0.138889  0.000000     12.000000
 -0.472222  0.138889  0.000000     12.000000
 -0.416667  0.138889  0.000000     12.000000
 -0.361111  0.138889  0.000000     12.000000
 -0.305556  0.138889  0.000000     12.000000
 -0.250000  0.138889  0.000000     12.000000
 -0.194444  0.138889  0.000000     12.000000
 -0.138889  0.138889  0.000000      6.000000
  0.194444  0.194444  0.000000      6.000000
  0.250000  0.194444  0.000000     12.000000
  0.305556  0.194444  0.000000     12.000000
  0.361111  0.194444  0.000000     12.000000
  0.416667  0.194444  0.000000     12.000000
  0.472222  0.194444  0.000000     12.000000
 -0.472222  0.194444  0.000000     12.000000
 -0.416667  0.194444  0.000000     12.000000
 -0.361111  0.194444  0.000000     12.000000
 -0.305556  0.194444  0.000000     12.000000
 -0.250000  0.194444  0.000000     12.000000
 -0.194444  0.194444  0.000000      6.000000
  0.250000  0.250000  0.000000      6.000000
  0.305556  0.250000  0.000000     12.000000
  0.361111  0.250000  0.000000     12.000000
  0.416667  0.250000  0.000000     12.000000
  0.472222  0.250000  0.000000     12.000000
 -0.472222  0.250000  0.000000     12.000000
 -0.416667  0.250000  0.000000     12.000000
 -0.361111  0.250000  0.000000     12.000000
 -0.305556  0.250000  0.000000     12.000000
 -0.250000  0.250000  0.000000      6.000000
  0.305556  0.305556  0.000000      6.000000
  0.361111  0.305556  0.000000     12.000000
  0.416667  0.305556  0.000000     12.000000
  0.472222  0.305556  0.000000     12.000000
 -0.472222  0.305556  0.000000     12.000000
 -0.416667  0.305556  0.000000     12.000000
 -0.361111  0.305556  0.000000     12.000000
 -0.305556  0.305556  0.000000      6.000000
  0.361111  0.361111  0.000000      6.000000
  0.416667  0.361111  0.000000     12.000000
  0.472222  0.361111  0.000000     12.000000
 -0.472222  0.361111  0.000000     12.000000
 -0.416667  0.361111  0.000000     12.000000
 -0.361111  0.361111  0.000000      6.000000
  0.416667  0.416667  0.000000      6.000000
  0.472222  0.416667  0.000000     12.000000
 -0.472222  0.416667  0.000000     12.000000
 -0.416667  0.416667  0.000000      6.000000
  0.472222  0.472222  0.000000      6.000000
 -0.472222  0.472222  0.000000      6.000000
 
 Following cartesian coordinates:
            Coordinates               Weight
  0.007123  0.012338  0.000000      6.000000
  0.021370  0.020563  0.000000     12.000000
  0.035616  0.028788  0.000000     12.000000
  0.049863  0.037013  0.000000     12.000000
  0.064109  0.045239  0.000000     12.000000
  0.078356  0.053464  0.000000     12.000000
  0.092602  0.061689  0.000000     12.000000
  0.106849  0.069914  0.000000     12.000000
  0.121095  0.078139  0.000000     12.000000
 -0.121095 -0.061689  0.000000     12.000000
 -0.106849 -0.053464  0.000000     12.000000
 -0.092602 -0.045239  0.000000     12.000000
 -0.078356 -0.037013  0.000000     12.000000
 -0.064109 -0.028788  0.000000     12.000000
 -0.049863 -0.020563  0.000000     12.000000
 -0.035616 -0.012338  0.000000     12.000000
 -0.021370 -0.004113  0.000000     12.000000
 -0.007123  0.004113  0.000000      6.000000
  0.021370  0.037013  0.000000      6.000000
  0.035616  0.045239  0.000000     12.000000
  0.049863  0.053464  0.000000     12.000000
  0.064109  0.061689  0.000000     12.000000
  0.078356  0.069914  0.000000     12.000000
  0.092602  0.078139  0.000000     12.000000
  0.106849  0.086365  0.000000     12.000000
  0.121095  0.094590  0.000000     12.000000
 -0.121095 -0.045239  0.000000     12.000000
 -0.106849 -0.037013  0.000000     12.000000
 -0.092602 -0.028788  0.000000     12.000000
 -0.078356 -0.020563  0.000000     12.000000
 -0.064109 -0.012338  0.000000     12.000000
 -0.049863 -0.004113  0.000000     12.000000
 -0.035616  0.004113  0.000000     12.000000
 -0.021370  0.012338  0.000000      6.000000
  0.035616  0.061689  0.000000      6.000000
  0.049863  0.069914  0.000000     12.000000
  0.064109  0.078139  0.000000     12.000000
  0.078356  0.086365  0.000000     12.000000
  0.092602  0.094590  0.000000     12.000000
  0.106849  0.102815  0.000000     12.000000
  0.121095  0.111040  0.000000     12.000000
 -0.121095 -0.028788  0.000000     12.000000
 -0.106849 -0.020563  0.000000     12.000000
 -0.092602 -0.012338  0.000000     12.000000
 -0.078356 -0.004113  0.000000     12.000000
 -0.064109  0.004113  0.000000     12.000000
 -0.049863  0.012338  0.000000     12.000000
 -0.035616  0.020563  0.000000      6.000000
  0.049863  0.086365  0.000000      6.000000
  0.064109  0.094590  0.000000     12.000000
  0.078356  0.102815  0.000000     12.000000
  0.092602  0.111040  0.000000     12.000000
  0.106849  0.119265  0.000000     12.000000
  0.121095  0.127491  0.000000     12.000000
 -0.121095 -0.012338  0.000000     12.000000
 -0.106849 -0.004113  0.000000     12.000000
 -0.092602  0.004113  0.000000     12.000000
 -0.078356  0.012338  0.000000     12.000000
 -0.064109  0.020563  0.000000     12.000000
 -0.049863  0.028788  0.000000      6.000000
  0.064109  0.111040  0.000000      6.000000
  0.078356  0.119265  0.000000     12.000000
  0.092602  0.127491  0.000000     12.000000
  0.106849  0.135716  0.000000     12.000000
  0.121095  0.143941  0.000000     12.000000
 -0.121095  0.004113  0.000000     12.000000
 -0.106849  0.012338  0.000000     12.000000
 -0.092602  0.020563  0.000000     12.000000
 -0.078356  0.028788  0.000000     12.000000
 -0.064109  0.037013  0.000000      6.000000
  0.078356  0.135716  0.000000      6.000000
  0.092602  0.143941  0.000000     12.000000
  0.106849  0.152166  0.000000     12.000000
  0.121095  0.160392  0.000000     12.000000
 -0.121095  0.020563  0.000000     12.000000
 -0.106849  0.028788  0.000000     12.000000
 -0.092602  0.037013  0.000000     12.000000
 -0.078356  0.045239  0.000000      6.000000
  0.092602  0.160392  0.000000      6.000000
  0.106849  0.168617  0.000000     12.000000
  0.121095  0.176842  0.000000     12.000000
 -0.121095  0.037013  0.000000     12.000000
 -0.106849  0.045239  0.000000     12.000000
 -0.092602  0.053464  0.000000      6.000000
  0.106849  0.185067  0.000000      6.000000
  0.121095  0.193292  0.000000     12.000000
 -0.121095  0.053464  0.000000     12.000000
 -0.106849  0.061689  0.000000      6.000000
  0.121095  0.209743  0.000000      6.000000
 -0.121095  0.069914  0.000000      6.000000
 


--------------------------------------------------------------------------------------------------------




 Dimension of arrays:
   k-points           NKPTS =     90   k-points in BZ     NKDIM =     90   number of bands    NBANDS=     32
   number of dos      NEDOS =    301   number of ions     NIONS =      3
   non local maximal  LDIM  =      6   non local SUM 2l+1 LMDIM =     18
   total plane-waves  NPLWV = 109760
   max r-space proj   IRMAX =      1   max aug-charges    IRDMAX= 157913
   dimension x,y,z NGX =    28 NGY =   28 NGZ =  140
   dimension x,y,z NGXF=    56 NGYF=   56 NGZF=  280
   support grid    NGXF=   112 NGYF=  112 NGZF=  560
   ions per type =               1   2
   NGX,Y,Z   is equivalent  to a cutoff of  11.94, 11.94, 13.02 a.u.
   NGXF,Y,Z  is equivalent  to a cutoff of  23.87, 23.87, 26.04 a.u.

 SYSTEM =  unknown system                          
 POSCAR =  CdCl2                                   

 Startparameter for this run:
   NWRITE =      2    write-flag & timer
   PREC   = accura    normal or accurate (medium, high low for compatibility)
   ISTART =      0    job   : 0-new  1-cont  2-samecut
   ICHARG =      2    charge: 1-file 2-atom 10-const
   ISPIN  =      1    spin polarized calculation?
   LNONCOLLINEAR =      F non collinear calculations
   LSORBIT =      F    spin-orbit coupling
   INIWAV =      1    electr: 0-lowe 1-rand  2-diag
   LASPH  =      T    aspherical Exc in radial PAW
   METAGGA=      F    non-selfconsistent MetaGGA calc.

 Electronic Relaxation 1
   ENCUT  =  500.0 eV  36.75 Ry    6.06 a.u.   7.11  7.11 32.59*2*pi/ulx,y,z
   ENINI  =  500.0     initial cutoff
   ENAUG  =  456.1 eV  augmentation charge cutoff
   NELM   =     60;   NELMIN=  2; NELMDL=  0     # of ELM steps 
   EDIFF  = 0.1E-03   stopping-criterion for ELM
   LREAL  =      F    real-space projection
   NLSPLINE    = F    spline interpolate recip. space projectors
   LCOMPAT=      F    compatible to vasp.4.4
   GGA_COMPAT  = T    GGA compatible to vasp.4.4-vasp.4.6
   LMAXPAW     = -100 max onsite density
   LMAXMIX     =    2 max onsite mixed and CHGCAR
   VOSKOWN=      0    Vosko Wilk Nusair interpolation
   ROPT   =    0.00000   0.00000
 Ionic relaxation
   EDIFFG = -.1E-01   stopping-criterion for IOM
   NSW    =    300    number of steps for IOM
   NBLOCK =      1;   KBLOCK =    300    inner block; outer block 
   IBRION =      2    ionic relax: 0-MD 1-quasi-New 2-CG
   NFREE  =      1    steps in history (QN), initial steepest desc. (CG)
   ISIF   =      3    stress and relaxation
   IWAVPR =     11    prediction:  0-non 1-charg 2-wave 3-comb
   ISYM   =      2    0-nonsym 1-usesym 2-fastsym
   LCORR  =      T    Harris-Foulkes like correction to forces

   POTIM  = 0.5000    time-step for ionic-motion
   TEIN   =    0.0    initial temperature
   TEBEG  =    0.0;   TEEND  =   0.0 temperature during run
   SMASS  =  -3.00    Nose mass-parameter (am)
   estimated Nose-frequenzy (Omega)   =  0.10E-29 period in steps = 0.13E+47 mass=  -0.348E-27a.u.
   SCALEE = 1.0000    scale energy and forces
   NPACO  =    256;   APACO  = 16.0  distance and # of slots for P.C.
   PSTRESS=    0.0 pullay stress

  Mass of Ions in am
   POMASS = 112.41 35.45
  Ionic Valenz
   ZVAL   =  12.00  7.00
  Atomic Wigner-Seitz radii
   RWIGS  =  -1.00 -1.00
  virtual crystal weights 
   VCA    =   1.00  1.00
   NELECT =      26.0000    total number of electrons
   NUPDOWN=      -1.0000    fix difference up-down

 DOS related values:
   EMIN   =  10.00;   EMAX   =-10.00  energy-range for DOS
   EFERMI =   0.00
   ISMEAR =     0;   SIGMA  =   0.05  broadening in eV -4-tet -1-fermi 0-gaus

 Electronic relaxation 2 (details)
   IALGO  =     38    algorithm
   LDIAG  =      T    sub-space diagonalisation (order eigenvalues)
   LSUBROT=      F    optimize rotation matrix (better conditioning)
   TURBO    =      0    0=normal 1=particle mesh
   IRESTART =      0    0=no restart 2=restart with 2 vectors
   NREBOOT  =      0    no. of reboots
   NMIN     =      0    reboot dimension
   EREF     =   0.00    reference energy to select bands
   IMIX   =      4    mixing-type and parameters
     AMIX     =   0.40;   BMIX     =  1.00
     AMIX_MAG =   1.60;   BMIX_MAG =  1.00
     AMIN     =   0.10
     WC   =   100.;   INIMIX=   1;  MIXPRE=   1;  MAXMIX= -45

 Intra band minimization:
   WEIMIN = 0.0010     energy-eigenvalue tresh-hold
   EBREAK =  0.78E-06  absolut break condition
   DEPER  =   0.30     relativ break condition  

   TIME   =   0.40     timestep for ELM

  volume/ion in A,a.u.               =      78.47       529.55
  Fermi-wavevector in a.u.,A,eV,Ry     =   0.785455  1.484295  8.393974  0.616940
  Thomas-Fermi vector in A             =   1.889794
 
 Write flags
   LWAVE        =      T    write WAVECAR
   LDOWNSAMPLE  =      F    k-point downsampling of WAVECAR
   LCHARG       =      T    write CHGCAR
   LVTOT        =      F    write LOCPOT, total local potential
   LVHAR        =      F    write LOCPOT, Hartree potential only
   LELF         =      F    write electronic localiz. function (ELF)
   LORBIT       =      0    0 simple, 1 ext, 2 COOP (PROOUT), +10 PAW based schemes


 Dipole corrections
   LMONO  =      F    monopole corrections only (constant potential shift)
   LDIPOL =      F    correct potential (dipole corrections)
   IDIPOL =      0    1-x, 2-y, 3-z, 4-all directions 
   EPSILON=  1.0000000 bulk dielectric constant

 Exchange correlation treatment:
   GGA     =    --    GGA type
   LEXCH   =     8    internal setting for exchange type
   VOSKOWN=      0    Vosko Wilk Nusair interpolation
   LHFCALC =     F    Hartree Fock is set to
   LHFONE  =     F    Hartree Fock one center treatment
   AEXX    =    0.0000 exact exchange contribution

 Linear response parameters
   LEPSILON=     F    determine dielectric tensor
   LRPA    =     F    only Hartree local field effects (RPA)
   LNABLA  =     F    use nabla operator in PAW spheres
   LVEL    =     F    velocity operator in full k-point grid
   LINTERFAST=   F  fast interpolation
   KINTER  =     0    interpolate to denser k-point grid
   CSHIFT  =0.1000    complex shift for real part using Kramers Kronig
   OMEGAMAX=  -1.0    maximum frequency
   DEG_THRESHOLD= 0.2000000E-02 threshold for treating states as degnerate
   RTIME   =   -0.100 relaxation time in fs
  (WPLASMAI=    0.000 imaginary part of plasma frequency in eV, 0.658/RTIME)
   DFIELD  = 0.0000000 0.0000000 0.0000000 field for delta impulse in time
 
 Orbital magnetization related:
   ORBITALMAG=     F  switch on orbital magnetization
   LCHIMAG   =     F  perturbation theory with respect to B field
   DQ        =  0.001000  dq finite difference perturbation B field
   LLRAUG    =     F  two centre corrections for induced B field



--------------------------------------------------------------------------------------------------------


 conjugate gradient relaxation of ions
 charge density and potential will be updated during run
 non-spin polarized calculation
 Variant of blocked Davidson
 Davidson routine will perform the subspace rotation
 perform sub-space diagonalisation
    after iterative eigenvector-optimisation
 modified Broyden-mixing scheme, WC =      100.0
 initial mixing is a Kerker type mixing with AMIX =  0.4000 and BMIX =      1.0000
 Hartree-type preconditioning will be used
 using additional bands           19
 reciprocal scheme for non local part
 use partial core corrections
 calculate Harris-corrections to forces 
   (improved forces if not selfconsistent)
 use gradient corrections 
 use of overlap-Matrix (Vanderbilt PP)
 Gauss-broadening in eV      SIGMA  =   0.05


--------------------------------------------------------------------------------------------------------


  energy-cutoff  :      500.00
  volume of cell :      235.41
      direct lattice vectors                 reciprocal lattice vectors
     3.899600029  0.000000000  0.000000000     0.256436556  0.148053714  0.000000000
    -1.949800015  3.377152690  0.000000000     0.000000000  0.296107429  0.000000000
     0.000000000  0.000000000 17.875699997     0.000000000  0.000000000  0.055941865

  length of vectors
     3.899600029  3.899600029 17.875699997     0.296107429  0.296107429  0.055941865


 
 k-points in units of 2pi/SCALE and weight: K-Spacing Value to Generate K-Mesh: 0.02
   0.00712324  0.01233781  0.00000000       0.006
   0.02136971  0.02056302  0.00000000       0.012
   0.03561619  0.02878822  0.00000000       0.012
   0.04986266  0.03701343  0.00000000       0.012
   0.06410914  0.04523863  0.00000000       0.012
   0.07835561  0.05346384  0.00000000       0.012
   0.09260209  0.06168905  0.00000000       0.012
   0.10684856  0.06991425  0.00000000       0.012
   0.12109504  0.07813946  0.00000000       0.012
  -0.12109504 -0.06168905  0.00000000       0.012
  -0.10684856 -0.05346384  0.00000000       0.012
  -0.09260209 -0.04523863  0.00000000       0.012
  -0.07835561 -0.03701343  0.00000000       0.012
  -0.06410914 -0.02878822  0.00000000       0.012
  -0.04986266 -0.02056302  0.00000000       0.012
  -0.03561619 -0.01233781  0.00000000       0.012
  -0.02136971 -0.00411260  0.00000000       0.012
  -0.00712324  0.00411260  0.00000000       0.006
   0.02136971  0.03701343  0.00000000       0.006
   0.03561619  0.04523863  0.00000000       0.012
   0.04986266  0.05346384  0.00000000       0.012
   0.06410914  0.06168905  0.00000000       0.012
   0.07835561  0.06991425  0.00000000       0.012
   0.09260209  0.07813946  0.00000000       0.012
   0.10684856  0.08636467  0.00000000       0.012
   0.12109504  0.09458987  0.00000000       0.012
  -0.12109504 -0.04523863  0.00000000       0.012
  -0.10684856 -0.03701343  0.00000000       0.012
  -0.09260209 -0.02878822  0.00000000       0.012
  -0.07835561 -0.02056302  0.00000000       0.012
  -0.06410914 -0.01233781  0.00000000       0.012
  -0.04986266 -0.00411260  0.00000000       0.012
  -0.03561619  0.00411260  0.00000000       0.012
  -0.02136971  0.01233781  0.00000000       0.006
   0.03561619  0.06168905  0.00000000       0.006
   0.04986266  0.06991425  0.00000000       0.012
   0.06410914  0.07813946  0.00000000       0.012
   0.07835561  0.08636467  0.00000000       0.012
   0.09260209  0.09458987  0.00000000       0.012
   0.10684856  0.10281508  0.00000000       0.012
   0.12109504  0.11104029  0.00000000       0.012
  -0.12109504 -0.02878822  0.00000000       0.012
  -0.10684856 -0.02056302  0.00000000       0.012
  -0.09260209 -0.01233781  0.00000000       0.012
  -0.07835561 -0.00411260  0.00000000       0.012
  -0.06410914  0.00411260  0.00000000       0.012
  -0.04986266  0.01233781  0.00000000       0.012
  -0.03561619  0.02056302  0.00000000       0.006
   0.04986266  0.08636467  0.00000000       0.006
   0.06410914  0.09458987  0.00000000       0.012
   0.07835561  0.10281508  0.00000000       0.012
   0.09260209  0.11104029  0.00000000       0.012
   0.10684856  0.11926549  0.00000000       0.012
   0.12109504  0.12749070  0.00000000       0.012
  -0.12109504 -0.01233781  0.00000000       0.012
  -0.10684856 -0.00411260  0.00000000       0.012
  -0.09260209  0.00411260  0.00000000       0.012
  -0.07835561  0.01233781  0.00000000       0.012
  -0.06410914  0.02056302  0.00000000       0.012
  -0.04986266  0.02878822  0.00000000       0.006
   0.06410914  0.11104029  0.00000000       0.006
   0.07835561  0.11926549  0.00000000       0.012
   0.09260209  0.12749070  0.00000000       0.012
   0.10684856  0.13571590  0.00000000       0.012
   0.12109504  0.14394111  0.00000000       0.012
  -0.12109504  0.00411260  0.00000000       0.012
  -0.10684856  0.01233781  0.00000000       0.012
  -0.09260209  0.02056302  0.00000000       0.012
  -0.07835561  0.02878822  0.00000000       0.012
  -0.06410914  0.03701343  0.00000000       0.006
   0.07835561  0.13571590  0.00000000       0.006
   0.09260209  0.14394111  0.00000000       0.012
   0.10684856  0.15216632  0.00000000       0.012
   0.12109504  0.16039152  0.00000000       0.012
  -0.12109504  0.02056302  0.00000000       0.012
  -0.10684856  0.02878822  0.00000000       0.012
  -0.09260209  0.03701343  0.00000000       0.012
  -0.07835561  0.04523863  0.00000000       0.006
   0.09260209  0.16039152  0.00000000       0.006
   0.10684856  0.16861673  0.00000000       0.012
   0.12109504  0.17684194  0.00000000       0.012
  -0.12109504  0.03701343  0.00000000       0.012
  -0.10684856  0.04523863  0.00000000       0.012
  -0.09260209  0.05346384  0.00000000       0.006
   0.10684856  0.18506714  0.00000000       0.006
   0.12109504  0.19329235  0.00000000       0.012
  -0.12109504  0.05346384  0.00000000       0.012
  -0.10684856  0.06168905  0.00000000       0.006
   0.12109504  0.20974276  0.00000000       0.006
  -0.12109504  0.06991425  0.00000000       0.006
 
 k-points in reciprocal lattice and weights: K-Spacing Value to Generate K-Mesh: 0.02
   0.02777778  0.02777778  0.00000000       0.006
   0.08333333  0.02777778  0.00000000       0.012
   0.13888889  0.02777778  0.00000000       0.012
   0.19444444  0.02777778  0.00000000       0.012
   0.25000000  0.02777778  0.00000000       0.012
   0.30555556  0.02777778  0.00000000       0.012
   0.36111111  0.02777778  0.00000000       0.012
   0.41666667  0.02777778  0.00000000       0.012
   0.47222222  0.02777778  0.00000000       0.012
  -0.47222222  0.02777778  0.00000000       0.012
  -0.41666667  0.02777778  0.00000000       0.012
  -0.36111111  0.02777778  0.00000000       0.012
  -0.30555556  0.02777778  0.00000000       0.012
  -0.25000000  0.02777778  0.00000000       0.012
  -0.19444444  0.02777778  0.00000000       0.012
  -0.13888889  0.02777778  0.00000000       0.012
  -0.08333333  0.02777778  0.00000000       0.012
  -0.02777778  0.02777778  0.00000000       0.006
   0.08333333  0.08333333  0.00000000       0.006
   0.13888889  0.08333333  0.00000000       0.012
   0.19444444  0.08333333  0.00000000       0.012
   0.25000000  0.08333333  0.00000000       0.012
   0.30555556  0.08333333  0.00000000       0.012
   0.36111111  0.08333333  0.00000000       0.012
   0.41666667  0.08333333  0.00000000       0.012
   0.47222222  0.08333333  0.00000000       0.012
  -0.47222222  0.08333333  0.00000000       0.012
  -0.41666667  0.08333333  0.00000000       0.012
  -0.36111111  0.08333333  0.00000000       0.012
  -0.30555556  0.08333333  0.00000000       0.012
  -0.25000000  0.08333333  0.00000000       0.012
  -0.19444444  0.08333333  0.00000000       0.012
  -0.13888889  0.08333333  0.00000000       0.012
  -0.08333333  0.08333333  0.00000000       0.006
   0.13888889  0.13888889  0.00000000       0.006
   0.19444444  0.13888889  0.00000000       0.012
   0.25000000  0.13888889  0.00000000       0.012
   0.30555556  0.13888889  0.00000000       0.012
   0.36111111  0.13888889  0.00000000       0.012
   0.41666667  0.13888889  0.00000000       0.012
   0.47222222  0.13888889  0.00000000       0.012
  -0.47222222  0.13888889  0.00000000       0.012
  -0.41666667  0.13888889  0.00000000       0.012
  -0.36111111  0.13888889  0.00000000       0.012
  -0.30555556  0.13888889  0.00000000       0.012
  -0.25000000  0.13888889  0.00000000       0.012
  -0.19444444  0.13888889  0.00000000       0.012
  -0.13888889  0.13888889  0.00000000       0.006
   0.19444444  0.19444444  0.00000000       0.006
   0.25000000  0.19444444  0.00000000       0.012
   0.30555556  0.19444444  0.00000000       0.012
   0.36111111  0.19444444  0.00000000       0.012
   0.41666667  0.19444444  0.00000000       0.012
   0.47222222  0.19444444  0.00000000       0.012
  -0.47222222  0.19444444  0.00000000       0.012
  -0.41666667  0.19444444  0.00000000       0.012
  -0.36111111  0.19444444  0.00000000       0.012
  -0.30555556  0.19444444  0.00000000       0.012
  -0.25000000  0.19444444  0.00000000       0.012
  -0.19444444  0.19444444  0.00000000       0.006
   0.25000000  0.25000000  0.00000000       0.006
   0.30555556  0.25000000  0.00000000       0.012
   0.36111111  0.25000000  0.00000000       0.012
   0.41666667  0.25000000  0.00000000       0.012
   0.47222222  0.25000000  0.00000000       0.012
  -0.47222222  0.25000000  0.00000000       0.012
  -0.41666667  0.25000000  0.00000000       0.012
  -0.36111111  0.25000000  0.00000000       0.012
  -0.30555556  0.25000000  0.00000000       0.012
  -0.25000000  0.25000000  0.00000000       0.006
   0.30555556  0.30555556  0.00000000       0.006
   0.36111111  0.30555556  0.00000000       0.012
   0.41666667  0.30555556  0.00000000       0.012
   0.47222222  0.30555556  0.00000000       0.012
  -0.47222222  0.30555556  0.00000000       0.012
  -0.41666667  0.30555556  0.00000000       0.012
  -0.36111111  0.30555556  0.00000000       0.012
  -0.30555556  0.30555556  0.00000000       0.006
   0.36111111  0.36111111  0.00000000       0.006
   0.41666667  0.36111111  0.00000000       0.012
   0.47222222  0.36111111  0.00000000       0.012
  -0.47222222  0.36111111  0.00000000       0.012
  -0.41666667  0.36111111  0.00000000       0.012
  -0.36111111  0.36111111  0.00000000       0.006
   0.41666667  0.41666667  0.00000000       0.006
   0.47222222  0.41666667  0.00000000       0.012
  -0.47222222  0.41666667  0.00000000       0.012
  -0.41666667  0.41666667  0.00000000       0.006
   0.47222222  0.47222222  0.00000000       0.006
  -0.47222222  0.47222222  0.00000000       0.006
 
 position of ions in fractional coordinates (direct lattice) 
   0.00000000  0.00000000  0.50000000
   0.66666669  0.33333334  0.58044000
   0.33333331  0.66666666  0.41956000
 
 position of ions in cartesian coordinates  (Angst):
   0.00000000  0.00000000  8.93785000
   1.94980007  1.12571760 10.37577131
  -0.00000006  2.25143509  7.49992869
 


--------------------------------------------------------------------------------------------------------


 k-point   1 :   0.0278 0.0278 0.0000  plane waves:    5957
 k-point   2 :   0.0833 0.0278 0.0000  plane waves:    5943
 k-point   3 :   0.1389 0.0278 0.0000  plane waves:    5959
 k-point   4 :   0.1944 0.0278 0.0000  plane waves:    5968
 k-point   5 :   0.2500 0.0278 0.0000  plane waves:    5974
 k-point   6 :   0.3056 0.0278 0.0000  plane waves:    5974
 k-point   7 :   0.3611 0.0278 0.0000  plane waves:    5973
 k-point   8 :   0.4167 0.0278 0.0000  plane waves:    5985
 k-point   9 :   0.4722 0.0278 0.0000  plane waves:    5996
 k-point  10 :  -0.4722 0.0278 0.0000  plane waves:    5982
 k-point  11 :  -0.4167 0.0278 0.0000  plane waves:    5976
 k-point  12 :  -0.3611 0.0278 0.0000  plane waves:    5975
 k-point  13 :  -0.3056 0.0278 0.0000  plane waves:    5969
 k-point  14 :  -0.2500 0.0278 0.0000  plane waves:    5974
 k-point  15 :  -0.1944 0.0278 0.0000  plane waves:    5956
 k-point  16 :  -0.1389 0.0278 0.0000  plane waves:    5958
 k-point  17 :  -0.0833 0.0278 0.0000  plane waves:    5949
 k-point  18 :  -0.0278 0.0278 0.0000  plane waves:    5947
 k-point  19 :   0.0833 0.0833 0.0000  plane waves:    5957
 k-point  20 :   0.1389 0.0833 0.0000  plane waves:    5935
 k-point  21 :   0.1944 0.0833 0.0000  plane waves:    5959
 k-point  22 :   0.2500 0.0833 0.0000  plane waves:    5975
 k-point  23 :   0.3056 0.0833 0.0000  plane waves:    5989
 k-point  24 :   0.3611 0.0833 0.0000  plane waves:    5968
 k-point  25 :   0.4167 0.0833 0.0000  plane waves:    5996
 k-point  26 :   0.4722 0.0833 0.0000  plane waves:    6000
 k-point  27 :  -0.4722 0.0833 0.0000  plane waves:    5980
 k-point  28 :  -0.4167 0.0833 0.0000  plane waves:    5967
 k-point  29 :  -0.3611 0.0833 0.0000  plane waves:    5985
 k-point  30 :  -0.3056 0.0833 0.0000  plane waves:    5971
 k-point  31 :  -0.2500 0.0833 0.0000  plane waves:    5949
 k-point  32 :  -0.1944 0.0833 0.0000  plane waves:    5956
 k-point  33 :  -0.1389 0.0833 0.0000  plane waves:    5951
 k-point  34 :  -0.0833 0.0833 0.0000  plane waves:    5941
 k-point  35 :   0.1389 0.1389 0.0000  plane waves:    5967
 k-point  36 :   0.1944 0.1389 0.0000  plane waves:    5964
 k-point  37 :   0.2500 0.1389 0.0000  plane waves:    5980
 k-point  38 :   0.3056 0.1389 0.0000  plane waves:    5984
 k-point  39 :   0.3611 0.1389 0.0000  plane waves:    5992
 k-point  40 :   0.4167 0.1389 0.0000  plane waves:    5989
 k-point  41 :   0.4722 0.1389 0.0000  plane waves:    5998
 k-point  42 :  -0.4722 0.1389 0.0000  plane waves:    5995
 k-point  43 :  -0.4167 0.1389 0.0000  plane waves:    5980
 k-point  44 :  -0.3611 0.1389 0.0000  plane waves:    5978
 k-point  45 :  -0.3056 0.1389 0.0000  plane waves:    5969
 k-point  46 :  -0.2500 0.1389 0.0000  plane waves:    5943
 k-point  47 :  -0.1944 0.1389 0.0000  plane waves:    5947
 k-point  48 :  -0.1389 0.1389 0.0000  plane waves:    5955
 k-point  49 :   0.1944 0.1944 0.0000  plane waves:    5975
 k-point  50 :   0.2500 0.1944 0.0000  plane waves:    5980
 k-point  51 :   0.3056 0.1944 0.0000  plane waves:    5987
 k-point  52 :   0.3611 0.1944 0.0000  plane waves:    6001
 k-point  53 :   0.4167 0.1944 0.0000  plane waves:    5997
 k-point  54 :   0.4722 0.1944 0.0000  plane waves:    5992
 k-point  55 :  -0.4722 0.1944 0.0000  plane waves:    5980
 k-point  56 :  -0.4167 0.1944 0.0000  plane waves:    5988
 k-point  57 :  -0.3611 0.1944 0.0000  plane waves:    5972
 k-point  58 :  -0.3056 0.1944 0.0000  plane waves:    5964
 k-point  59 :  -0.2500 0.1944 0.0000  plane waves:    5957
 k-point  60 :  -0.1944 0.1944 0.0000  plane waves:    5956
 k-point  61 :   0.2500 0.2500 0.0000  plane waves:    5983
 k-point  62 :   0.3056 0.2500 0.0000  plane waves:    6001
 k-point  63 :   0.3611 0.2500 0.0000  plane waves:    5997
 k-point  64 :   0.4167 0.2500 0.0000  plane waves:    6001
 k-point  65 :   0.4722 0.2500 0.0000  plane waves:    5989
 k-point  66 :  -0.4722 0.2500 0.0000  plane waves:    5982
 k-point  67 :  -0.4167 0.2500 0.0000  plane waves:    5972
 k-point  68 :  -0.3611 0.2500 0.0000  plane waves:    5984
 k-point  69 :  -0.3056 0.2500 0.0000  plane waves:    5969
 k-point  70 :  -0.2500 0.2500 0.0000  plane waves:    5982
 k-point  71 :   0.3056 0.3056 0.0000  plane waves:    5983
 k-point  72 :   0.3611 0.3056 0.0000  plane waves:    5999
 k-point  73 :   0.4167 0.3056 0.0000  plane waves:    5998
 k-point  74 :   0.4722 0.3056 0.0000  plane waves:    5988
 k-point  75 :  -0.4722 0.3056 0.0000  plane waves:    5983
 k-point  76 :  -0.4167 0.3056 0.0000  plane waves:    5986
 k-point  77 :  -0.3611 0.3056 0.0000  plane waves:    5977
 k-point  78 :  -0.3056 0.3056 0.0000  plane waves:    5968
 k-point  79 :   0.3611 0.3611 0.0000  plane waves:    6003
 k-point  80 :   0.4167 0.3611 0.0000  plane waves:    5999
 k-point  81 :   0.4722 0.3611 0.0000  plane waves:    5992
 k-point  82 :  -0.4722 0.3611 0.0000  plane waves:    5971
 k-point  83 :  -0.4167 0.3611 0.0000  plane waves:    5972
 k-point  84 :  -0.3611 0.3611 0.0000  plane waves:    5970
 k-point  85 :   0.4167 0.4167 0.0000  plane waves:    6003
 k-point  86 :   0.4722 0.4167 0.0000  plane waves:    6001
 k-point  87 :  -0.4722 0.4167 0.0000  plane waves:    5990
 k-point  88 :  -0.4167 0.4167 0.0000  plane waves:    5974
 k-point  89 :   0.4722 0.4722 0.0000  plane waves:    5996
 k-point  90 :  -0.4722 0.4722 0.0000  plane waves:    6000

 maximum and minimum number of plane-waves per node :      6003     5935

 maximum number of plane-waves:      6003
 maximum index in each direction: 
   IXMAX=    7   IYMAX=    7   IZMAX=   32
   IXMIN=   -7   IYMIN=   -7   IZMIN=  -32


 serial   3D FFT for wavefunctions
 parallel 3D FFT for charge:
    minimum data exchange during FFTs selected (reduces bandwidth)


 total amount of memory used by VASP MPI-rank0   206057. kBytes
=======================================================================

   base      :      30000. kBytes
   nonl-proj :     156223. kBytes
   fftplans  :       4865. kBytes
   grid      :       6168. kBytes
   one-center:         46. kBytes
   wavefun   :       8755. kBytes
 
     INWAV:  cpu time    0.0000: real time    0.0000
 Broyden mixing: mesh for mixing (old mesh)
   NGX = 15   NGY = 15   NGZ = 65
  (NGX  = 56   NGY  = 56   NGZ  =280)
  gives a total of  14625 points

 initial charge density was supplied:
 charge density of overlapping atoms calculated
 number of electron      26.0000000 magnetization 
 keeping initial charge density in first step


--------------------------------------------------------------------------------------------------------


 Maximum index for augmentation-charges         6419 (set IRDMAX)


--------------------------------------------------------------------------------------------------------


 First call to EWALD:  gamma=   0.287
 Maximum number of real-space cells 5x 5x 1
 Maximum number of reciprocal cells 2x 2x 7

    FEWALD:  cpu time    0.0012: real time    0.0012


--------------------------------------- Iteration      1(   1)  ---------------------------------------


    POTLOK:  cpu time    0.0172: real time    0.0174
    SETDIJ:  cpu time    0.1159: real time    0.1162
     EDDAV:  cpu time    1.3321: real time    1.3354
       DOS:  cpu time    0.0018: real time    0.0018
    --------------------------------------------
      LOOP:  cpu time    1.4670: real time    1.4708

 eigenvalue-minimisations  :  5760
 total energy-change (2. order) : 0.1435989E+03  (-0.1077532E+04)
 number of electron      26.0000000 magnetization 
 augmentation part       26.0000000 magnetization 

 Free energy of the ion-electron system (eV)
  ---------------------------------------------------
  alpha Z        PSCENC =        27.15346840
  Ewald energy   TEWEN  =      2582.10954531
  -Hartree energ DENC   =     -4548.19842309
  -exchange      EXHF   =         0.00000000
  -V(xc)+E(xc)   XCENC  =        45.37197240
  PAW double counting   =      1847.23716974    -1813.68373116
  entropy T*S    EENTRO =        -0.00191311
  eigenvalues    EBANDS =      -109.01014620
  atomic energy  EATOM  =      2112.62099042
  Solvation  Ediel_sol  =         0.00000000
  ---------------------------------------------------
  free energy    TOTEN  =       143.59893271 eV

  energy without entropy =      143.60084582  energy(sigma->0) =      143.59988927


--------------------------------------------------------------------------------------------------------




--------------------------------------- Iteration      1(   2)  ---------------------------------------


     EDDAV:  cpu time    1.8307: real time    1.8364
       DOS:  cpu time    0.0003: real time    0.0003
    --------------------------------------------
      LOOP:  cpu time    1.8309: real time    1.8367

 eigenvalue-minimisations  :  7872
 total energy-change (2. order) :-0.1469310E+03  (-0.1431131E+03)
 number of electron      26.0000000 magnetization 
 augmentation part       26.0000000 magnetization 

 Free energy of the ion-electron system (eV)
  ---------------------------------------------------
  alpha Z        PSCENC =        27.15346840
  Ewald energy   TEWEN  =      2582.10954531
  -Hartree energ DENC   =     -4548.19842309
  -exchange      EXHF   =         0.00000000
  -V(xc)+E(xc)   XCENC  =        45.37197240
  PAW double counting   =      1847.23716974    -1813.68373116
  entropy T*S    EENTRO =        -0.00000000
  eigenvalues    EBANDS =      -255.94310918
  atomic energy  EATOM  =      2112.62099042
  Solvation  Ediel_sol  =         0.00000000
  ---------------------------------------------------
  free energy    TOTEN  =        -3.33211716 eV

  energy without entropy =       -3.33211716  energy(sigma->0) =       -3.33211716


--------------------------------------------------------------------------------------------------------




--------------------------------------- Iteration      1(   3)  ---------------------------------------


     EDDAV:  cpu time    1.7276: real time    1.7330
       DOS:  cpu time    0.0003: real time    0.0003
    --------------------------------------------
      LOOP:  cpu time    1.7279: real time    1.7332

 eigenvalue-minimisations  :  7360
 total energy-change (2. order) :-0.5007478E+01  (-0.5007478E+01)
 number of electron      26.0000000 magnetization 
 augmentation part       26.0000000 magnetization 

 Free energy of the ion-electron system (eV)
  ---------------------------------------------------
  alpha Z        PSCENC =        27.15346840
  Ewald energy   TEWEN  =      2582.10954531
  -Hartree energ DENC   =     -4548.19842309
  -exchange      EXHF   =         0.00000000
  -V(xc)+E(xc)   XCENC  =        45.37197240
  PAW double counting   =      1847.23716974    -1813.68373116
  entropy T*S    EENTRO =        -0.00000000
  eigenvalues    EBANDS =      -260.95058756
  atomic energy  EATOM  =      2112.62099042
  Solvation  Ediel_sol  =         0.00000000
  ---------------------------------------------------
  free energy    TOTEN  =        -8.33959554 eV

  energy without entropy =       -8.33959554  energy(sigma->0) =       -8.33959554


--------------------------------------------------------------------------------------------------------




--------------------------------------- Iteration      1(   4)  ---------------------------------------


     EDDAV:  cpu time    2.5083: real time    2.5144
       DOS:  cpu time    0.0003: real time    0.0003
    --------------------------------------------
      LOOP:  cpu time    2.5086: real time    2.5147

 eigenvalue-minimisations  : 10240
 total energy-change (2. order) :-0.2873156E-01  (-0.2873156E-01)
 number of electron      26.0000000 magnetization 
 augmentation part       26.0000000 magnetization 

 Free energy of the ion-electron system (eV)
  ---------------------------------------------------
  alpha Z        PSCENC =        27.15346840
  Ewald energy   TEWEN  =      2582.10954531
  -Hartree energ DENC   =     -4548.19842309
  -exchange      EXHF   =         0.00000000
  -V(xc)+E(xc)   XCENC  =        45.37197240
  PAW double counting   =      1847.23716974    -1813.68373116
  entropy T*S    EENTRO =        -0.00000000
  eigenvalues    EBANDS =      -260.97931912
  atomic energy  EATOM  =      2112.62099042
  Solvation  Ediel_sol  =         0.00000000
  ---------------------------------------------------
  free energy    TOTEN  =        -8.36832710 eV

  energy without entropy =       -8.36832710  energy(sigma->0) =       -8.36832710


--------------------------------------------------------------------------------------------------------




--------------------------------------- Iteration      1(   5)  ---------------------------------------


     EDDAV:  cpu time    1.6998: real time    1.7044
       DOS:  cpu time    0.0003: real time    0.0003
    CHARGE:  cpu time    0.0935: real time    0.0937
    MIXING:  cpu time    0.0018: real time    0.0019
    --------------------------------------------
      LOOP:  cpu time    1.7954: real time    1.8003

 eigenvalue-minimisations  :  7232
 total energy-change (2. order) :-0.8228076E-05  (-0.8228075E-05)
 number of electron      26.0000000 magnetization 
 augmentation part        3.8431290 magnetization 

 Broyden mixing:
  rms(total) = 0.74125E+00    rms(broyden)= 0.74124E+00
  rms(prec ) = 0.77607E+00
  weight for this iteration     100.00

 Free energy of the ion-electron system (eV)
  ---------------------------------------------------
  alpha Z        PSCENC =        27.15346840
  Ewald energy   TEWEN  =      2582.10954531
  -Hartree energ DENC   =     -4548.19842309
  -exchange      EXHF   =         0.00000000
  -V(xc)+E(xc)   XCENC  =        45.37197240
  PAW double counting   =      1847.23716974    -1813.68373116
  entropy T*S    EENTRO =        -0.00000000
  eigenvalues    EBANDS =      -260.97932735
  atomic energy  EATOM  =      2112.62099042
  Solvation  Ediel_sol  =         0.00000000
  ---------------------------------------------------
  free energy    TOTEN  =        -8.36833533 eV

  energy without entropy =       -8.36833533  energy(sigma->0) =       -8.36833533


--------------------------------------------------------------------------------------------------------




--------------------------------------- Iteration      1(   6)  ---------------------------------------


    POTLOK:  cpu time    0.0131: real time    0.0147
    SETDIJ:  cpu time    0.1010: real time    0.1012
     EDDAV:  cpu time    1.8377: real time    1.8422
       DOS:  cpu time    0.0003: real time    0.0003
    CHARGE:  cpu time    0.0910: real time    0.0912
    MIXING:  cpu time    0.0014: real time    0.0015
    --------------------------------------------
      LOOP:  cpu time    2.0445: real time    2.0512

 eigenvalue-minimisations  :  7712
 total energy-change (2. order) : 0.6250638E+00  (-0.2211955E+00)
 number of electron      26.0000000 magnetization 
 augmentation part        3.9388417 magnetization 

 Broyden mixing:
  rms(total) = 0.62330E+00    rms(broyden)= 0.62330E+00
  rms(prec ) = 0.62867E+00
  weight for this iteration     100.00

 eigenvalues of (default mixing * dielectric matrix)
  average eigenvalue GAMMA=   1.6226
  1.6226

 Free energy of the ion-electron system (eV)
  ---------------------------------------------------
  alpha Z        PSCENC =        27.15346840
  Ewald energy   TEWEN  =      2582.10954531
  -Hartree energ DENC   =     -4545.07428381
  -exchange      EXHF   =         0.00000000
  -V(xc)+E(xc)   XCENC  =        45.83046352
  PAW double counting   =      1960.71115499    -1925.98598866
  entropy T*S    EENTRO =        -0.00000000
  eigenvalues    EBANDS =      -265.10862170
  atomic energy  EATOM  =      2112.62099042
  Solvation  Ediel_sol  =         0.00000000
  ---------------------------------------------------
  free energy    TOTEN  =        -7.74327152 eV

  energy without entropy =       -7.74327152  energy(sigma->0) =       -7.74327152


--------------------------------------------------------------------------------------------------------




--------------------------------------- Iteration      1(   7)  ---------------------------------------


    POTLOK:  cpu time    0.0116: real time    0.0117
    SETDIJ:  cpu time    0.1002: real time    0.1005
     EDDAV:  cpu time    2.1549: real time    2.1601
       DOS:  cpu time    0.0003: real time    0.0003
    CHARGE:  cpu time    0.0930: real time    0.0932
    MIXING:  cpu time    0.0007: real time    0.0008
    --------------------------------------------
      LOOP:  cpu time    2.3608: real time    2.3665

 eigenvalue-minimisations  :  9088
 total energy-change (2. order) : 0.5244618E-01  (-0.3241019E-01)
 number of electron      26.0000000 magnetization 
 augmentation part        3.9567716 magnetization 

 Broyden mixing:
  rms(total) = 0.29579E+00    rms(broyden)= 0.29579E+00
  rms(prec ) = 0.29734E+00
  weight for this iteration     100.00

 eigenvalues of (default mixing * dielectric matrix)
  average eigenvalue GAMMA=   1.8474
  1.1217  2.5731

 Free energy of the ion-electron system (eV)
  ---------------------------------------------------
  alpha Z        PSCENC =        27.15346840
  Ewald energy   TEWEN  =      2582.10954531
  -Hartree energ DENC   =     -4543.51263228
  -exchange      EXHF   =         0.00000000
  -V(xc)+E(xc)   XCENC  =        46.06281883
  PAW double counting   =      2118.93808937    -2083.57798550
  entropy T*S    EENTRO =        -0.00000000
  eigenvalues    EBANDS =      -267.48511990
  atomic energy  EATOM  =      2112.62099042
  Solvation  Ediel_sol  =         0.00000000
  ---------------------------------------------------
  free energy    TOTEN  =        -7.69082535 eV

  energy without entropy =       -7.69082535  energy(sigma->0) =       -7.69082535


--------------------------------------------------------------------------------------------------------




--------------------------------------- Iteration      1(   8)  ---------------------------------------


    POTLOK:  cpu time    0.0118: real time    0.0118
    SETDIJ:  cpu time    0.1002: real time    0.1005
     EDDAV:  cpu time    2.5498: real time    2.5559
       DOS:  cpu time    0.0003: real time    0.0003
    CHARGE:  cpu time    0.0930: real time    0.0932
    MIXING:  cpu time    0.0008: real time    0.0008
    --------------------------------------------
      LOOP:  cpu time    2.7558: real time    2.7624

 eigenvalue-minimisations  : 10272
 total energy-change (2. order) : 0.2998080E-02  (-0.3132620E-02)
 number of electron      26.0000000 magnetization 
 augmentation part        3.9434732 magnetization 

 Broyden mixing:
  rms(total) = 0.41847E-01    rms(broyden)= 0.41846E-01
  rms(prec ) = 0.42593E-01
  weight for this iteration     100.00

 eigenvalues of (default mixing * dielectric matrix)
  average eigenvalue GAMMA=   1.5958
  2.2009  1.2933  1.2933

 Free energy of the ion-electron system (eV)
  ---------------------------------------------------
  alpha Z        PSCENC =        27.15346840
  Ewald energy   TEWEN  =      2582.10954531
  -Hartree energ DENC   =     -4541.64749419
  -exchange      EXHF   =         0.00000000
  -V(xc)+E(xc)   XCENC  =        46.09224773
  PAW double counting   =      2242.95840080    -2207.33469960
  entropy T*S    EENTRO =        -0.00000000
  eigenvalues    EBANDS =      -269.64028613
  atomic energy  EATOM  =      2112.62099042
  Solvation  Ediel_sol  =         0.00000000
  ---------------------------------------------------
  free energy    TOTEN  =        -7.68782727 eV

  energy without entropy =       -7.68782727  energy(sigma->0) =       -7.68782727


--------------------------------------------------------------------------------------------------------




--------------------------------------- Iteration      1(   9)  ---------------------------------------


    POTLOK:  cpu time    0.0116: real time    0.0139
    SETDIJ:  cpu time    0.0993: real time    0.0995
     EDDAV:  cpu time    2.2687: real time    2.2742
       DOS:  cpu time    0.0003: real time    0.0003
    CHARGE:  cpu time    0.0883: real time    0.0885
    MIXING:  cpu time    0.0012: real time    0.0012
    --------------------------------------------
      LOOP:  cpu time    2.4694: real time    2.4776

 eigenvalue-minimisations  :  9568
 total energy-change (2. order) :-0.4205975E-03  (-0.1385403E-03)
 number of electron      26.0000000 magnetization 
 augmentation part        3.9464693 magnetization 

 Broyden mixing:
  rms(total) = 0.17109E-01    rms(broyden)= 0.17109E-01
  rms(prec ) = 0.18110E-01
  weight for this iteration     100.00

 eigenvalues of (default mixing * dielectric matrix)
  average eigenvalue GAMMA=   1.6101
  2.5178  0.9200  1.2873  1.7151

 Free energy of the ion-electron system (eV)
  ---------------------------------------------------
  alpha Z        PSCENC =        27.15346840
  Ewald energy   TEWEN  =      2582.10954531
  -Hartree energ DENC   =     -4540.82848640
  -exchange      EXHF   =         0.00000000
  -V(xc)+E(xc)   XCENC  =        46.06648236
  PAW double counting   =      2231.78653451    -2196.15955989
  entropy T*S    EENTRO =        -0.00000000
  eigenvalues    EBANDS =      -270.43722258
  atomic energy  EATOM  =      2112.62099042
  Solvation  Ediel_sol  =         0.00000000
  ---------------------------------------------------
  free energy    TOTEN  =        -7.68824786 eV

  energy without entropy =       -7.68824786  energy(sigma->0) =       -7.68824786


--------------------------------------------------------------------------------------------------------




--------------------------------------- Iteration      1(  10)  ---------------------------------------


    POTLOK:  cpu time    0.0112: real time    0.0112
    SETDIJ:  cpu time    0.0989: real time    0.0991
     EDDAV:  cpu time    2.2091: real time    2.2144
       DOS:  cpu time    0.0003: real time    0.0003
    CHARGE:  cpu time    0.0873: real time    0.0875
    MIXING:  cpu time    0.0009: real time    0.0009
    --------------------------------------------
      LOOP:  cpu time    2.4077: real time    2.4134

 eigenvalue-minimisations  :  9408
 total energy-change (2. order) :-0.5751754E-03  (-0.4206332E-04)
 number of electron      26.0000000 magnetization 
 augmentation part        3.9460730 magnetization 

 Broyden mixing:
  rms(total) = 0.53780E-02    rms(broyden)= 0.53779E-02
  rms(prec ) = 0.65834E-02
  weight for this iteration     100.00

 eigenvalues of (default mixing * dielectric matrix)
  average eigenvalue GAMMA=   1.6909
  2.4762  1.0761  1.0761  2.0029  1.8235

 Free energy of the ion-electron system (eV)
  ---------------------------------------------------
  alpha Z        PSCENC =        27.15346840
  Ewald energy   TEWEN  =      2582.10954531
  -Hartree energ DENC   =     -4540.07157264
  -exchange      EXHF   =         0.00000000
  -V(xc)+E(xc)   XCENC  =        46.05859182
  PAW double counting   =      2236.54010166    -2200.89293513
  entropy T*S    EENTRO =        -0.00000000
  eigenvalues    EBANDS =      -271.20701288
  atomic energy  EATOM  =      2112.62099042
  Solvation  Ediel_sol  =         0.00000000
  ---------------------------------------------------
  free energy    TOTEN  =        -7.68882304 eV

  energy without entropy =       -7.68882304  energy(sigma->0) =       -7.68882304


--------------------------------------------------------------------------------------------------------




--------------------------------------- Iteration      1(  11)  ---------------------------------------


    POTLOK:  cpu time    0.0110: real time    0.0111
    SETDIJ:  cpu time    0.0991: real time    0.0994
     EDDAV:  cpu time    2.0820: real time    2.0870
       DOS:  cpu time    0.0003: real time    0.0003
    CHARGE:  cpu time    0.0924: real time    0.0927
    MIXING:  cpu time    0.0006: real time    0.0006
    --------------------------------------------
      LOOP:  cpu time    2.2855: real time    2.2910

 eigenvalue-minimisations  :  8832
 total energy-change (2. order) :-0.4722457E-03  (-0.1236907E-04)
 number of electron      26.0000000 magnetization 
 augmentation part        3.9455375 magnetization 

 Broyden mixing:
  rms(total) = 0.18070E-02    rms(broyden)= 0.18070E-02
  rms(prec ) = 0.31786E-02
  weight for this iteration     100.00

 eigenvalues of (default mixing * dielectric matrix)
  average eigenvalue GAMMA=   1.6686
  2.9654  2.3691  1.4537  0.9773  1.1231  1.1231

 Free energy of the ion-electron system (eV)
  ---------------------------------------------------
  alpha Z        PSCENC =        27.15346840
  Ewald energy   TEWEN  =      2582.10954531
  -Hartree energ DENC   =     -4539.57985658
  -exchange      EXHF   =         0.00000000
  -V(xc)+E(xc)   XCENC  =        46.05540401
  PAW double counting   =      2234.43542043    -2198.79417423
  entropy T*S    EENTRO =        -0.00000000
  eigenvalues    EBANDS =      -271.69009304
  atomic energy  EATOM  =      2112.62099042
  Solvation  Ediel_sol  =         0.00000000
  ---------------------------------------------------
  free energy    TOTEN  =        -7.68929529 eV

  energy without entropy =       -7.68929529  energy(sigma->0) =       -7.68929529


--------------------------------------------------------------------------------------------------------




--------------------------------------- Iteration      1(  12)  ---------------------------------------


    POTLOK:  cpu time    0.0112: real time    0.0113
    SETDIJ:  cpu time    0.1004: real time    0.1006
     EDDAV:  cpu time    2.0684: real time    2.0734
       DOS:  cpu time    0.0003: real time    0.0003
    CHARGE:  cpu time    0.0897: real time    0.0899
    MIXING:  cpu time    0.0009: real time    0.0009
    --------------------------------------------
      LOOP:  cpu time    2.2708: real time    2.2763

 eigenvalue-minimisations  :  8736
 total energy-change (2. order) :-0.2860190E-03  (-0.7557590E-05)
 number of electron      26.0000000 magnetization 
 augmentation part        3.9455133 magnetization 

 Broyden mixing:
  rms(total) = 0.11691E-02    rms(broyden)= 0.11690E-02
  rms(prec ) = 0.20873E-02
  weight for this iteration     100.00

 eigenvalues of (default mixing * dielectric matrix)
  average eigenvalue GAMMA=   1.9936
  4.2337  2.5504  2.5504  1.3968  0.9939  1.1148  1.1148

 Free energy of the ion-electron system (eV)
  ---------------------------------------------------
  alpha Z        PSCENC =        27.15346840
  Ewald energy   TEWEN  =      2582.10954531
  -Hartree energ DENC   =     -4539.10862846
  -exchange      EXHF   =         0.00000000
  -V(xc)+E(xc)   XCENC  =        46.05024042
  PAW double counting   =      2234.13021353    -2198.48881129
  entropy T*S    EENTRO =        -0.00000000
  eigenvalues    EBANDS =      -272.15659963
  atomic energy  EATOM  =      2112.62099042
  Solvation  Ediel_sol  =         0.00000000
  ---------------------------------------------------
  free energy    TOTEN  =        -7.68958130 eV

  energy without entropy =       -7.68958130  energy(sigma->0) =       -7.68958130


--------------------------------------------------------------------------------------------------------




--------------------------------------- Iteration      1(  13)  ---------------------------------------


    POTLOK:  cpu time    0.0114: real time    0.0118
    SETDIJ:  cpu time    0.0998: real time    0.1000
     EDDAV:  cpu time    1.7772: real time    1.7815
       DOS:  cpu time    0.0003: real time    0.0003
    CHARGE:  cpu time    0.0886: real time    0.0888
    MIXING:  cpu time    0.0010: real time    0.0010
    --------------------------------------------
      LOOP:  cpu time    1.9783: real time    1.9835

 eigenvalue-minimisations  :  7616
 total energy-change (2. order) :-0.3277475E-03  (-0.1860414E-04)
 number of electron      26.0000000 magnetization 
 augmentation part        3.9454226 magnetization 

 Broyden mixing:
  rms(total) = 0.78455E-03    rms(broyden)= 0.78453E-03
  rms(prec ) = 0.92294E-03
  weight for this iteration     100.00

 eigenvalues of (default mixing * dielectric matrix)
  average eigenvalue GAMMA=   2.0960
  5.6768  2.6785  2.3760  1.4475  1.4475  0.9814  1.0801  1.0801

 Free energy of the ion-electron system (eV)
  ---------------------------------------------------
  alpha Z        PSCENC =        27.15346840
  Ewald energy   TEWEN  =      2582.10954531
  -Hartree energ DENC   =     -4538.34925322
  -exchange      EXHF   =         0.00000000
  -V(xc)+E(xc)   XCENC  =        46.04434145
  PAW double counting   =      2235.03113972    -2199.39270217
  entropy T*S    EENTRO =        -0.00000000
  eigenvalues    EBANDS =      -272.90743896
  atomic energy  EATOM  =      2112.62099042
  Solvation  Ediel_sol  =         0.00000000
  ---------------------------------------------------
  free energy    TOTEN  =        -7.68990905 eV

  energy without entropy =       -7.68990905  energy(sigma->0) =       -7.68990905


--------------------------------------------------------------------------------------------------------




--------------------------------------- Iteration      1(  14)  ---------------------------------------


    POTLOK:  cpu time    0.0109: real time    0.0110
    SETDIJ:  cpu time    0.1001: real time    0.1003
     EDDAV:  cpu time    1.9300: real time    1.9347
       DOS:  cpu time    0.0003: real time    0.0003
    --------------------------------------------
      LOOP:  cpu time    2.0412: real time    2.0462

 eigenvalue-minimisations  :  8352
 total energy-change (2. order) :-0.1176189E-04  (-0.3954724E-06)
 number of electron      26.0000000 magnetization 
 augmentation part        3.9454226 magnetization 

 Free energy of the ion-electron system (eV)
  ---------------------------------------------------
  alpha Z        PSCENC =        27.15346840
  Ewald energy   TEWEN  =      2582.10954531
  -Hartree energ DENC   =     -4538.25598392
  -exchange      EXHF   =         0.00000000
  -V(xc)+E(xc)   XCENC  =        46.04389774
  PAW double counting   =      2234.61557918    -2198.97854301
  entropy T*S    EENTRO =        -0.00000000
  eigenvalues    EBANDS =      -272.99887493
  atomic energy  EATOM  =      2112.62099042
  Solvation  Ediel_sol  =         0.00000000
  ---------------------------------------------------
  free energy    TOTEN  =        -7.68992081 eV

  energy without entropy =       -7.68992081  energy(sigma->0) =       -7.68992081


--------------------------------------------------------------------------------------------------------




 average (electrostatic) potential at core
  the test charge radii are     1.0698  0.9406
  (the norm of the test charge is              1.0000)
       1 -44.9360       2 -99.0619       3 -99.0619
 
 
 
 E-fermi :  -5.3835     XC(G=0):  -3.2679     alpha+bet : -2.2240


 k-point     1 :       0.0278    0.0278    0.0000
  band No.  band energies     occupation 
      1     -19.0039      2.00000
      2     -18.4954      2.00000
      3     -11.9589      2.00000
      4     -11.9566      2.00000
      5     -11.7716      2.00000
      6     -11.5810      2.00000
      7     -11.5794      2.00000
      8      -8.0885      2.00000
      9      -6.1856      2.00000
     10      -6.1600      2.00000
     11      -6.1415      2.00000
     12      -5.6748      2.00000
     13      -5.6321      2.00000
     14      -1.6569      0.00000
     15       0.7069      0.00000
     16       2.1789      0.00000
     17       2.2833      0.00000
     18       3.1880      0.00000
     19       3.6455      0.00000
     20       3.7110      0.00000
     21       4.4104      0.00000
     22       5.8182      0.00000
     23       6.4770      0.00000
     24       6.6412      0.00000
     25       6.6891      0.00000
     26       7.5793      0.00000
     27       8.7266      0.00000
     28       8.8870      0.00000
     29       9.1782      0.00000
     30       9.6122      0.00000
     31       9.7550      0.00000
     32       9.8796      0.00000

 k-point     2 :       0.0833    0.0278    0.0000
  band No.  band energies     occupation 
      1     -18.9749      2.00000
      2     -18.4944      2.00000
      3     -11.9452      2.00000
      4     -11.9347      2.00000
      5     -11.7553      2.00000
      6     -11.5874      2.00000
      7     -11.5803      2.00000
      8      -8.1141      2.00000
      9      -6.3503      2.00000
     10      -6.2250      2.00000
     11      -6.1159      2.00000
     12      -5.8091      2.00000
     13      -5.6421      2.00000
     14      -1.4668      0.00000
     15       0.9454      0.00000
     16       2.2103      0.00000
     17       2.3723      0.00000
     18       3.0922      0.00000
     19       3.6311      0.00000
     20       3.8156      0.00000
     21       4.4789      0.00000
     22       5.8611      0.00000
     23       6.0708      0.00000
     24       6.6676      0.00000
     25       6.7855      0.00000
     26       7.5794      0.00000
     27       8.3575      0.00000
     28       8.6301      0.00000
     29       9.5348      0.00000
     30       9.7752      0.00000
     31      10.0489      0.00000
     32      10.4798      0.00000

 k-point     3 :       0.1389    0.0278    0.0000
  band No.  band energies     occupation 
      1     -18.9255      2.00000
      2     -18.4930      2.00000
      3     -11.9239      2.00000
      4     -11.8977      2.00000
      5     -11.7276      2.00000
      6     -11.5977      2.00000
      7     -11.5795      2.00000
      8      -8.1647      2.00000
      9      -6.6019      2.00000
     10      -6.3359      2.00000
     11      -6.0900      2.00000
     12      -5.9911      2.00000
     13      -5.6516      2.00000
     14      -1.1932      0.00000
     15       1.2891      0.00000
     16       2.2264      0.00000
     17       2.5323      0.00000
     18       3.0117      0.00000
     19       3.7229      0.00000
     20       3.9716      0.00000
     21       4.5987      0.00000
     22       5.6144      0.00000
     23       5.8585      0.00000
     24       6.7771      0.00000
     25       6.9342      0.00000
     26       7.3116      0.00000
     27       8.2679      0.00000
     28       8.5142      0.00000
     29       9.8352      0.00000
     30      10.0067      0.00000
     31      10.3198      0.00000
     32      11.1274      0.00000

 k-point     4 :       0.1944    0.0278    0.0000
  band No.  band energies     occupation 
      1     -18.8605      2.00000
      2     -18.4917      2.00000
      3     -11.9006      2.00000
      4     -11.8519      2.00000
      5     -11.6900      2.00000
      6     -11.6088      2.00000
      7     -11.5729      2.00000
      8      -8.2440      2.00000
      9      -6.8949      2.00000
     10      -6.4743      2.00000
     11      -6.2544      2.00000
     12      -5.9855      2.00000
     13      -5.6589      2.00000
     14      -0.9245      0.00000
     15       1.5394      0.00000
     16       2.3261      0.00000
     17       2.7618      0.00000
     18       3.1114      0.00000
     19       3.8963      0.00000
     20       4.1307      0.00000
     21       4.7344      0.00000
     22       5.2428      0.00000
     23       5.8158      0.00000
     24       6.8656      0.00000
     25       7.0421      0.00000
     26       7.1880      0.00000
     27       8.3714      0.00000
     28       8.5785      0.00000
     29       9.6521      0.00000
     30      10.2382      0.00000
     31      10.3873      0.00000
     32      10.5598      0.00000

[...]
     23       6.1275      0.00000
     24       6.7016      0.00000
     25       7.2217      0.00000
     26       7.5446      0.00000
     27       7.9928      0.00000
     28       8.4656      0.00000
     29       8.7347      0.00000
     30       9.1656      0.00000
     31       9.6091      0.00000
     32      10.0993      0.00000

 k-point    83 :      -0.4167    0.3611    0.0000
  band No.  band energies     occupation 
      1     -18.6079      2.00000
      2     -18.4878      2.00000
      3     -11.8309      2.00000
      4     -11.7679      2.00000
      5     -11.5731      2.00000
      6     -11.4790      2.00000
      7     -11.4528      2.00000
      8      -8.5754      2.00000
      9      -7.7903      2.00000
     10      -6.8616      2.00000
     11      -6.6864      2.00000
     12      -5.7847      2.00000
     13      -5.6635      2.00000
     14      -0.6713      0.00000
     15       1.6283      0.00000
     16       3.6293      0.00000
     17       3.7111      0.00000
     18       4.1031      0.00000
     19       4.3716      0.00000
     20       4.4766      0.00000
     21       4.9253      0.00000
     22       5.5891      0.00000
     23       6.1155      0.00000
     24       6.5122      0.00000
     25       7.4737      0.00000
     26       7.6867      0.00000
     27       8.2787      0.00000
     28       8.5560      0.00000
     29       8.8273      0.00000
     30       9.1916      0.00000
     31       9.6839      0.00000
     32       9.7047      0.00000

 k-point    84 :      -0.3611    0.3611    0.0000
  band No.  band energies     occupation 
      1     -18.6441      2.00000
      2     -18.4863      2.00000
      3     -11.8362      2.00000
      4     -11.7724      2.00000
      5     -11.5792      2.00000
      6     -11.4918      2.00000
      7     -11.4793      2.00000
      8      -8.5327      2.00000
      9      -7.6891      2.00000
     10      -6.7483      2.00000
     11      -6.6802      2.00000
     12      -5.8071      2.00000
     13      -5.6313      2.00000
     14      -0.6743      0.00000
     15       1.5530      0.00000
     16       3.4988      0.00000
     17       3.5368      0.00000
     18       4.0609      0.00000
     19       4.3512      0.00000
     20       4.3817      0.00000
     21       4.6952      0.00000
     22       5.4911      0.00000
     23       6.0844      0.00000
     24       6.5004      0.00000
     25       7.6091      0.00000
     26       7.9234      0.00000
     27       8.4006      0.00000
     28       8.4498      0.00000
     29       8.8841      0.00000
     30       9.3480      0.00000
     31       9.5394      0.00000
     32       9.6209      0.00000

 k-point    85 :       0.4167    0.4167    0.0000
  band No.  band energies     occupation 
      1     -18.5111      2.00000
      2     -18.5028      2.00000
      3     -11.7832      2.00000
      4     -11.7250      2.00000
      5     -11.5599      2.00000
      6     -11.4775      2.00000
      7     -11.4347      2.00000
      8      -8.6392      2.00000
      9      -7.8496      2.00000
     10      -7.1957      2.00000
     11      -6.8384      2.00000
     12      -5.8477      2.00000
     13      -5.7387      2.00000
     14      -0.5043      0.00000
     15       2.1535      0.00000
     16       3.5166      0.00000
     17       4.1033      0.00000
     18       4.3017      0.00000
     19       4.7800      0.00000
     20       4.9124      0.00000
     21       5.6525      0.00000
     22       5.7841      0.00000
     23       6.3019      0.00000
     24       6.4347      0.00000
     25       7.2563      0.00000
     26       7.3975      0.00000
     27       7.5352      0.00000
     28       8.1253      0.00000
     29       8.7356      0.00000
     30       8.9381      0.00000
     31       9.6411      0.00000
     32       9.6869      0.00000

 k-point    86 :       0.4722    0.4167    0.0000
  band No.  band energies     occupation 
      1     -18.5310      2.00000
      2     -18.5009      2.00000
      3     -11.8122      2.00000
      4     -11.7571      2.00000
      5     -11.5615      2.00000
      6     -11.4586      2.00000
      7     -11.4132      2.00000
      8      -8.6429      2.00000
      9      -7.9346      2.00000
     10      -7.0442      2.00000
     11      -6.7685      2.00000
     12      -5.7681      2.00000
     13      -5.7260      2.00000
     14      -0.6391      0.00000
     15       1.8363      0.00000
     16       3.7252      0.00000
     17       4.0269      0.00000
     18       4.1503      0.00000
     19       4.7151      0.00000
     20       4.8783      0.00000
     21       5.5284      0.00000
     22       5.5559      0.00000
     23       6.0817      0.00000
     24       6.5166      0.00000
     25       7.1210      0.00000
     26       7.4660      0.00000
     27       7.9000      0.00000
     28       8.1688      0.00000
     29       8.9378      0.00000
     30       9.2900      0.00000
     31       9.6296      0.00000
     32      10.0286      0.00000

 k-point    87 :      -0.4722    0.4167    0.0000
  band No.  band energies     occupation 
      1     -18.5567      2.00000
      2     -18.4966      2.00000
      3     -11.8301      2.00000
      4     -11.7769      2.00000
      5     -11.5649      2.00000
      6     -11.4502      2.00000
      7     -11.4110      2.00000
      8      -8.6334      2.00000
      9      -7.9525      2.00000
     10      -6.9145      2.00000
     11      -6.7366      2.00000
     12      -5.7507      2.00000
     13      -5.6690      2.00000
     14      -0.7305      0.00000
     15       1.6175      0.00000
     16       3.7613      0.00000
     17       3.9817      0.00000
     18       4.1688      0.00000
     19       4.5307      0.00000
     20       4.7340      0.00000
     21       5.3661      0.00000
     22       5.5087      0.00000
     23       5.9940      0.00000
     24       6.6097      0.00000
     25       6.9906      0.00000
     26       7.5362      0.00000
     27       8.1830      0.00000
     28       8.4496      0.00000
     29       8.9585      0.00000
     30       9.3576      0.00000
     31       9.7688      0.00000
     32       9.9654      0.00000

 k-point    88 :      -0.4167    0.4167    0.0000
  band No.  band energies     occupation 
      1     -18.5835      2.00000
      2     -18.4920      2.00000
      3     -11.8355      2.00000
      4     -11.7806      2.00000
      5     -11.5692      2.00000
      6     -11.4535      2.00000
      7     -11.4298      2.00000
      8      -8.6097      2.00000
      9      -7.9006      2.00000
     10      -6.8378      2.00000
     11      -6.7258      2.00000
     12      -5.7645      2.00000
     13      -5.6358      2.00000
     14      -0.7423      0.00000
     15       1.5424      0.00000
     16       3.6939      0.00000
     17       3.9060      0.00000
     18       4.2642      0.00000
     19       4.3590      0.00000
     20       4.5140      0.00000
     21       5.1329      0.00000
     22       5.5909      0.00000
     23       6.0509      0.00000
     24       6.5248      0.00000
     25       7.1787      0.00000
     26       7.6121      0.00000
     27       8.2975      0.00000
     28       8.6327      0.00000
     29       9.0200      0.00000
     30       9.2113      0.00000
     31       9.6355      0.00000
     32       9.8056      0.00000

 k-point    89 :       0.4722    0.4722    0.0000
  band No.  band energies     occupation 
      1     -18.5303      2.00000
      2     -18.5080      2.00000
      3     -11.8300      2.00000
      4     -11.7811      2.00000
      5     -11.5618      2.00000
      6     -11.4414      2.00000
      7     -11.3933      2.00000
      8      -8.6534      2.00000
      9      -8.0097      2.00000
     10      -6.9345      2.00000
     11      -6.7506      2.00000
     12      -5.7368      2.00000
     13      -5.6731      2.00000
     14      -0.7546      0.00000
     15       1.6125      0.00000
     16       3.8216      0.00000
     17       3.9534      0.00000
     18       4.2479      0.00000
     19       4.7627      0.00000
     20       4.9060      0.00000
     21       5.3315      0.00000
     22       5.4958      0.00000
     23       6.0972      0.00000
     24       6.2884      0.00000
     25       7.1249      0.00000
     26       7.3298      0.00000
     27       8.1281      0.00000
     28       8.4230      0.00000
     29       9.0470      0.00000
     30       9.6094      0.00000
     31       9.7217      0.00000
     32      10.0390      0.00000

 k-point    90 :      -0.4722    0.4722    0.0000
  band No.  band energies     occupation 
      1     -18.5415      2.00000
      2     -18.5042      2.00000
      3     -11.8361      2.00000
      4     -11.7881      2.00000
      5     -11.5630      2.00000
      6     -11.4383      2.00000
      7     -11.3926      2.00000
      8      -8.6504      2.00000
      9      -8.0159      2.00000
     10      -6.8853      2.00000
     11      -6.7433      2.00000
     12      -5.7427      2.00000
     13      -5.6382      2.00000
     14      -0.7900      0.00000
     15       1.5341      0.00000
     16       3.7976      0.00000
     17       3.9435      0.00000
     18       4.3404      0.00000
     19       4.6233      0.00000
     20       4.8656      0.00000
     21       5.3191      0.00000
     22       5.4758      0.00000
     23       5.9649      0.00000
     24       6.4338      0.00000
     25       6.9971      0.00000
     26       7.4060      0.00000
     27       8.1509      0.00000
     28       8.5973      0.00000
     29       9.2638      0.00000
     30       9.4412      0.00000
     31       9.8743      0.00000
     32       9.9424      0.00000


--------------------------------------------------------------------------------------------------------


 soft charge-density along one line, spin component           1
         0         1         2         3         4         5         6         7         8         9
 total charge-density along one line
 
 pseudopotential strength for first ion, spin component:           1
-21.288   0.000  -0.000   0.007  -0.000 -21.222   0.000  -0.000
  0.000 -21.285   0.000  -0.000   0.007   0.000 -21.220   0.000
 -0.000   0.000 -21.294   0.000   0.000  -0.000   0.000 -21.229
  0.007  -0.000   0.000 -21.285   0.000   0.007  -0.000   0.000
 -0.000   0.007   0.000   0.000 -21.288  -0.000   0.007   0.000
-21.222   0.000  -0.000   0.007  -0.000 -21.141   0.000  -0.000
  0.000 -21.220   0.000  -0.000   0.007   0.000 -21.138   0.000
 -0.000   0.000 -21.229   0.000   0.000  -0.000   0.000 -21.147
  0.007  -0.000   0.000 -21.220   0.000   0.007  -0.000   0.000
 -0.000   0.007   0.000   0.000 -21.222  -0.000   0.007   0.000
 -0.000  -0.000  -0.001  -0.000   0.000  -0.000  -0.000  -0.001
 -0.000  -0.000  -0.001  -0.000   0.000  -0.000  -0.000  -0.001
 -0.000  -0.000   0.000  -0.000   0.000  -0.000  -0.000   0.000
 -0.000  -0.000  -0.000  -0.000  -0.000  -0.000  -0.000  -0.000
 -0.000  -0.000   0.000  -0.000  -0.000  -0.000  -0.000   0.000
 -0.000  -0.000   0.000  -0.000   0.000  -0.000  -0.000   0.000
 -0.000  -0.000  -0.000  -0.000  -0.000  -0.000  -0.000  -0.000
 -0.000  -0.000   0.000  -0.000  -0.000  -0.000  -0.000   0.000
 total augmentation occupancy for first ion, spin component:           1
  4.242   0.000   0.000   1.905   0.000  -2.073   0.000   0.000  -1.762   0.000   0.000   0.000   0.000   0.000   0.000   0.000
  0.000   5.193  -0.000   0.000   1.905   0.000  -2.935   0.000   0.000  -1.762   0.000   0.000   0.000   0.000   0.000   0.000
  0.000  -0.000   2.766   0.000  -0.000   0.000   0.000  -0.682   0.000   0.000   0.235  -0.075   0.000   0.000   0.000   0.000
  1.905   0.000   0.000   5.193   0.000  -1.762   0.000   0.000  -2.935   0.000   0.000   0.000   0.000   0.000   0.000   0.000
  0.000   1.905  -0.000   0.000   4.242   0.000  -1.762   0.000   0.000  -2.073  -0.000   0.000   0.000   0.000   0.000   0.000
 -2.073   0.000   0.000  -1.762   0.000   1.914   0.000   0.000   1.628   0.000   0.000   0.000   0.000   0.000   0.000   0.000
  0.000  -2.935   0.000   0.000  -1.762   0.000   2.692  -0.000   0.000   1.628   0.000   0.000   0.000   0.000   0.000   0.000
  0.000   0.000  -0.682   0.000   0.000   0.000  -0.000   0.603   0.000  -0.000  -0.224   0.076   0.000   0.000   0.000   0.000
 -1.762   0.000   0.000  -2.935   0.000   1.628   0.000   0.000   2.692   0.000   0.000   0.000   0.000   0.000   0.000   0.000
  0.000  -1.762   0.000   0.000  -2.073   0.000   1.628  -0.000   0.000   1.914   0.000  -0.000   0.000   0.000   0.000   0.000
  0.000  -0.000   0.235   0.000  -0.000   0.000   0.000  -0.224   0.000   0.000   2.810  -0.892   0.000   0.000   0.000   0.000
  0.000   0.000  -0.075   0.000   0.000   0.000   0.000   0.076   0.000  -0.000  -0.892   0.303   0.000   0.000   0.000   0.000
  0.000   0.000   0.000   0.000   0.000   0.000   0.000   0.000   0.000   0.000   0.000   0.000   0.188   0.000   0.000  -0.045
  0.000   0.000   0.000   0.000   0.000   0.000   0.000   0.000   0.000   0.000   0.000   0.000   0.000   0.163   0.000  -0.000
  0.000   0.000   0.000   0.000   0.000   0.000   0.000   0.000   0.000   0.000   0.000   0.000   0.000   0.000   0.188   0.000
  0.000   0.000   0.000   0.000   0.000   0.000   0.000   0.000   0.000   0.000   0.000   0.000  -0.045  -0.000   0.000   0.012
  0.000   0.000   0.000   0.000   0.000   0.000   0.000   0.000   0.000   0.000   0.000   0.000   0.000  -0.039   0.000   0.000
  0.000   0.000   0.000   0.000   0.000   0.000   0.000   0.000   0.000   0.000   0.000   0.000   0.000   0.000  -0.045   0.000


------------------------ aborting loop because EDIFF is reached ----------------------------------------


    CHARGE:  cpu time    0.1173: real time    0.1176
    FORLOC:  cpu time    0.0015: real time    0.0015
    FORNL :  cpu time    0.2239: real time    0.2245
    STRESS:  cpu time    3.8975: real time    3.9069
    FORCOR:  cpu time    0.0158: real time    0.0158
    FORHAR:  cpu time    0.0045: real time    0.0045
    MIXING:  cpu time    0.0006: real time    0.0006
    OFIELD:  cpu time    0.0000: real time    0.0000

 ---------------------------------------------------------------------------------------------

         DFTD3 V3.0 Rev 1        
 Edisp (eV)   -0.34184

 E6    (eV) :    -0.1196
 E8    (eV) :    -0.2223
 % E8        : 65.03
    FORVDW:  cpu time    0.0066: real time    0.0110

  FORCE on cell =-STRESS in cart. coord.  units (eV):
  Direction    XX          YY          ZZ          XY          YZ          ZX
  --------------------------------------------------------------------------------------
  Alpha Z    27.53863    27.53863    27.53863
  Ewald    3758.70243  3758.70245 -4903.14852    -0.00002    -0.00001    -0.00001
  Hartree  4252.35560  4252.35560 -3933.50927     0.00000     0.00000     0.00000
  E(xc)    -115.59895  -115.59894  -115.82449     0.00000     0.00000    -0.00000
  Local   -8374.04922 -8374.04922  8469.46090     0.00003     0.00001     0.00001
  n-local    74.91041    77.72804    76.07237    -0.81342     0.22075     0.12691
  augment    -7.75866    -7.75865    -7.94514     0.00001     0.00000     0.00000
  Kinetic   379.17885   386.42542   387.40538    -2.09190     0.13418     0.07747
  Fock        0.00000     0.00000     0.00000     0.00000     0.00000     0.00000
  vdW        -0.33334    -0.33334    -0.05724     0.00000     0.00000     0.00000
  -------------------------------------------------------------------------------------
  Total      -0.02213    -0.02213    -0.00736     0.00000     0.00000     0.00000
  in kB      -0.15275    -0.15275    -0.05081     0.00000     0.00000     0.00000
  external pressure =       -0.12 kB  Pullay stress =        0.00 kB


 VOLUME and BASIS-vectors are now :
 -----------------------------------------------------------------------------
  energy-cutoff  :      500.00
  volume of cell :      232.12
      direct lattice vectors                 reciprocal lattice vectors
     3.872233464  0.000000000  0.000000000     0.258248892  0.149100067  0.000000000
    -1.936116732  3.353452549  0.000000000     0.000000000  0.298200134  0.000000000
     0.000000000  0.000000000 17.875699997     0.000000000  0.000000000  0.055941865

  length of vectors
     3.872233464  3.872233464 17.875699997     0.298200134  0.298200134  0.055941865


 FORCES acting on ions
    electron-ion (+dipol)            ewald-force                    non-local-force                 convergence-correction
 -----------------------------------------------------------------------------------------------
   0.499E-08 0.299E-08 0.355E-06   0.371E-07 0.222E-07 -.838E-07   0.795E-25 -.787E-25 -.604E-25   0.111E-09 0.662E-10 -.356E-10
   -.554E-04 -.319E-04 -.620E+03   -.479E-05 -.276E-05 0.623E+03   -.267E-16 -.470E-17 -.303E+01   0.348E-07 -.229E-07 -.736E-02
   0.549E-04 0.317E-04 0.620E+03   0.475E-05 0.274E-05 -.623E+03   -.584E-17 -.459E-17 0.303E+01   -.348E-07 0.229E-07 0.736E-02
 -----------------------------------------------------------------------------------------------
   -.468E-06 -.281E-06 0.192E-06   -.133E-13 0.179E-14 0.000E+00   -.326E-16 -.929E-17 0.000E+00   0.113E-09 0.678E-10 -.881E-10
 
 
 POSITION                                       TOTAL-FORCE (eV/Angst)
 -----------------------------------------------------------------------------------
     -0.00000     -0.00000      8.93785         0.000000     -0.000000      0.000000
      1.93612      1.11782     10.39241        -0.000000      0.000000      0.009648
     -0.00000      2.23563      7.48329         0.000000      0.000000     -0.009648
 -----------------------------------------------------------------------------------
    total drift:                               -0.000000     -0.000000      0.000000


--------------------------------------------------------------------------------------------------------



  FREE ENERGIE OF THE ION-ELECTRON SYSTEM (eV)
  ---------------------------------------------------
  free  energy   TOTEN  =        -8.02937971 eV

  energy  without entropy=       -8.02937971  energy(sigma->0) =       -8.02937971
 
 d Force = 0.6732860E-03[ 0.218E-03, 0.113E-02]  d Energy = 0.5751402E-03 0.981E-04
 d Force = 0.1405846E+02[ 0.141E+02, 0.140E+02]  d Ewald  =-0.2047363E+01 0.161E+02


--------------------------------------------------------------------------------------------------------


    POTLOK:  cpu time    0.1262: real time    0.1265


--------------------------------------------------------------------------------------------------------




--------------------------------------------------------------------------------------------------------


  
 reached required accuracy - stopping structural energy minimisation
 writing wavefunctions
     LOOP+:  cpu time   17.0834: real time   17.1335
    4ORBIT:  cpu time    0.0000: real time    0.0000

 total amount of memory used by VASP MPI-rank0   206057. kBytes
=======================================================================

   base      :      30000. kBytes
   nonl-proj :     156223. kBytes
   fftplans  :       4865. kBytes
   grid      :       6168. kBytes
   one-center:         46. kBytes
   wavefun   :       8755. kBytes
 
  
  
 General timing and accounting informations for this job:
 ========================================================
  
                  Total CPU time used (sec):      194.601
                            User time (sec):      193.783
                          System time (sec):        0.818
                         Elapsed time (sec):      195.258
  
                   Maximum memory used (kb):      419620.
                   Average memory used (kb):           0.
  
                          Minor page faults:       120680
                          Major page faults:            0
                 Voluntary context switches:         1158
