 running on   32 total cores
 distrk:  each k-point on   32 cores,    1 groups
 distr:  one band on    1 cores,   32 groups
 using from now: INCAR     
 vasp.6.1.2 22Jul20 (build Aug 13 2020 05:42:33) complex                        
  
 POSCAR found type information on POSCAR CdCl
 POSCAR found :  2 types and       3 ions
 scaLAPACK will be used
 -----------------------------------------------------------------------------
|                                                                             |
|           W    W    AA    RRRRR   N    N  II  N    N   GGGG   !!!           |
|           W    W   A  A   R    R  NN   N  II  NN   N  G    G  !!!           |
|           W    W  A    A  R    R  N N  N  II  N N  N  G       !!!           |
|           W WW W  AAAAAA  RRRRR   N  N N  II  N  N N  G  GGG   !            |
|           WW  WW  A    A  R   R   N   NN  II  N   NN  G    G                |
|           W    W  A    A  R    R  N    N  II  N    N   GGGG   !!!           |
|                                                                             |
|     For optimal performance we recommend to set                             |
|       NCORE = 4 - approx SQRT(number of cores).                             |
|     NCORE specifies how many cores store one orbital (NPAR=cpu/NCORE).      |
|     This setting can greatly improve the performance of VASP for DFT.       |
|     The default, NCORE=1 might be grossly inefficient on modern             |
|     multi-core architectures or massively parallel machines. Do your        |
|     own testing!!!!                                                         |
|     Unfortunately you need to use the default for GW and RPA                |
|     calculations (for HF NCORE is supported but not extensively tested      |
|     yet).                                                                   |
|                                                                             |
 -----------------------------------------------------------------------------

 LDA part: xc-table for Pade appr. of Perdew
 POSCAR, INCAR and KPOINTS ok, starting setup
 FFT: planning ...
 WAVECAR not read
 WARNING: random wavefunctions but no delay for mixing, default for NELMDL
 entering main loop
       N       E                     dE             d eps       ncg     rms          rms(c)
DAV:   1     0.143598932711E+03    0.14360E+03   -0.10775E+04  5760   0.602E+02
DAV:   2    -0.333211716375E+01   -0.14693E+03   -0.14311E+03  7872   0.127E+02
DAV:   3    -0.833959553850E+01   -0.50075E+01   -0.50075E+01  7360   0.299E+01
DAV:   4    -0.836832710134E+01   -0.28732E-01   -0.28732E-01 10240   0.213E+00
DAV:   5    -0.836833532942E+01   -0.82281E-05   -0.82281E-05  7232   0.342E-02    0.741E+00
DAV:   6    -0.774327152259E+01    0.62506E+00   -0.22120E+00  7712   0.795E+00    0.623E+00
DAV:   7    -0.769082534698E+01    0.52446E-01   -0.32410E-01  9088   0.207E+00    0.296E+00
DAV:   8    -0.768782726703E+01    0.29981E-02   -0.31326E-02 10272   0.110E+00    0.418E-01
DAV:   9    -0.768824786456E+01   -0.42060E-03   -0.13854E-03  9568   0.218E-01    0.171E-01
DAV:  10    -0.768882303993E+01   -0.57518E-03   -0.42063E-04  9408   0.781E-02    0.538E-02
DAV:  11    -0.768929528567E+01   -0.47225E-03   -0.12369E-04  8832   0.488E-02    0.181E-02
DAV:  12    -0.768958130470E+01   -0.28602E-03   -0.75576E-05  8736   0.236E-02    0.117E-02
DAV:  13    -0.768990905221E+01   -0.32775E-03   -0.18604E-04  7616   0.272E-02    0.785E-03
DAV:  14    -0.768992081409E+01   -0.11762E-04   -0.39547E-06  8352   0.501E-03
   1 F= -.80275694E+01 E0= -.80275694E+01  d E =-.802757E+01
 curvature:   0.00 expect dE= 0.000E+00 dE for cont linesearch  0.000E+00
 trial: gam= 0.00000 g(F)=  0.571E-04 g(S)=  0.123E-02 ort = 0.000E+00 (trialstep = 0.100E+01)
 search vector abs. value=  0.129E-02
 bond charge predicted
       N       E                     dE             d eps       ncg     rms          rms(c)
DAV:   1    -0.769782772491E+01   -0.79187E-02   -0.25950E-01  6720   0.266E+00    0.656E-01
DAV:   2    -0.768971731154E+01    0.81104E-02   -0.21451E-02  8640   0.820E-01    0.232E-01
DAV:   3    -0.768875153952E+01    0.96577E-03   -0.23381E-03  9600   0.234E-01    0.178E-01
DAV:   4    -0.768859771850E+01    0.15382E-03   -0.25360E-04  8096   0.798E-02    0.437E-02
DAV:   5    -0.768859727318E+01    0.44531E-06   -0.31541E-05  8960   0.258E-02
   2 F= -.80283627E+01 E0= -.80283627E+01  d E =-.793308E-03
 trial-energy change:   -0.000793  1 .order   -0.000800   -0.001292   -0.000309
 step:   1.3140(harm=  1.3140)  dis= 0.00154  next Energy=    -8.028418 (dE=-0.849E-03)
 bond charge predicted
       N       E                     dE             d eps       ncg     rms          rms(c)
DAV:   1    -0.768889694389E+01   -0.29923E-03   -0.25745E-02  6144   0.840E-01    0.207E-01
DAV:   2    -0.768808947154E+01    0.80747E-03   -0.21098E-03  8736   0.257E-01    0.735E-02
DAV:   3    -0.768799445869E+01    0.95013E-04   -0.22981E-04  8032   0.738E-02
   3 F= -.80284204E+01 E0= -.80284204E+01  d E =-.851034E-03
 curvature:  -0.66 expect dE=-0.341E-03 dE for cont linesearch -0.161E-03
 ZBRENT: increasing intervall
 opt :   1.9419  next Energy=    -8.028933 (dE=-0.136E-02)
 bond charge predicted
       N       E                     dE             d eps       ncg     rms          rms(c)
DAV:   1    -0.769022510528E+01   -0.21356E-02   -0.10063E-01  6048   0.166E+00    0.411E-01
DAV:   2    -0.768692313086E+01    0.33020E-02   -0.85882E-03  8352   0.517E-01    0.153E-01
DAV:   3    -0.768652847052E+01    0.39466E-03   -0.94364E-04  8608   0.149E-01    0.119E-01
DAV:   4    -0.768646754545E+01    0.60925E-04   -0.10906E-04  8448   0.524E-02
   4 F= -.80282082E+01 E0= -.80282082E+01  d E =-.638818E-03
 curvature:  -2.09 expect dE=-0.184E-02 dE for cont linesearch -0.194E-03
 ZBRENT: bracketing found
 ZBRENT: interpolating
 opt :   1.7028  next Energy=    -8.028250 (dE=-0.680E-03)
 bond charge predicted
       N       E                     dE             d eps       ncg     rms          rms(c)
DAV:   1    -0.768762339416E+01   -0.10949E-02   -0.15536E-02  5760   0.651E-01    0.158E-01
DAV:   2    -0.768716697833E+01    0.45642E-03   -0.12308E-03  9888   0.197E-01    0.582E-02
DAV:   3    -0.768710984028E+01    0.57138E-04   -0.12717E-04  6112   0.553E-02
   5 F= -.80283507E+01 E0= -.80283507E+01  d E =-.781342E-03
 curvature:  -0.45 expect dE=-0.624E-03 dE for cont linesearch -0.249E-03
 ZBRENT: interpolating
 opt :   1.4689  next Energy=    -8.028464 (dE=-0.895E-03)
 bond charge predicted
       N       E                     dE             d eps       ncg     rms          rms(c)
DAV:   1    -0.768818346731E+01   -0.10165E-02   -0.13552E-02  6176   0.613E-01    0.153E-01
DAV:   2    -0.768772352586E+01    0.45994E-03   -0.12059E-03  9248   0.193E-01    0.596E-02
DAV:   3    -0.768766594595E+01    0.57580E-04   -0.12508E-04  6848   0.548E-02
   6 F= -.80284172E+01 E0= -.80284172E+01  d E =-.847764E-03
 curvature:  -0.08 expect dE=-0.745E-04 dE for cont linesearch -0.239E-04
 ZBRENT: interpolating
 opt :   1.3871  next Energy=    -8.028441 (dE=-0.872E-03)
 bond charge predicted
       N       E                     dE             d eps       ncg     rms          rms(c)
DAV:   1    -0.768790227890E+01   -0.17875E-03   -0.14987E-03  9632   0.205E-01    0.530E-02
DAV:   2    -0.768784172200E+01    0.60557E-04   -0.15317E-04  8416   0.673E-02
   7 F= -.80284212E+01 E0= -.80284212E+01  d E =-.851840E-03
 curvature:  -0.07 expect dE=-0.657E-04 dE for cont linesearch -0.240E-04
 ZBRENT: interpolating
 opt :   1.3471  next Energy=    -8.028430 (dE=-0.860E-03)
 bond charge predicted
       N       E                     dE             d eps       ncg     rms          rms(c)
DAV:   1    -0.768794311014E+01   -0.40831E-04   -0.29577E-04  8320   0.906E-02    0.288E-02
DAV:   2    -0.768792231989E+01    0.20790E-04   -0.46507E-05  7712   0.371E-02
   8 F= -.80284179E+01 E0= -.80284179E+01  d E =-.848457E-03
 curvature:  -0.03 expect dE=-0.164E-04 dE for cont linesearch -0.292E-05
 ZBRENT: interpolating
 opt :   1.3337  next Energy=    -8.028420 (dE=-0.851E-03)
 bond charge predicted
       N       E                     dE             d eps       ncg     rms          rms(c)
DAV:   1    -0.768795076386E+01   -0.76537E-05   -0.26641E-05  7520   0.274E-02    0.156E-02
DAV:   2    -0.768794662257E+01    0.41413E-05   -0.68083E-06  7360   0.141E-02
   9 F= -.80284141E+01 E0= -.80284141E+01  d E =-.844699E-03
 curvature:  -0.02 expect dE=-0.107E-04 dE for cont linesearch -0.473E-06
 ZBRENT: interpolating
 opt :   1.3259  next Energy=    -8.028415 (dE=-0.845E-03)
 bond charge predicted
       N       E                     dE             d eps       ncg     rms          rms(c)
DAV:   1    -0.768796267631E+01   -0.11912E-04   -0.98369E-06  7616   0.167E-02    0.755E-03
DAV:   2    -0.768796160893E+01    0.10674E-05   -0.15132E-06  6848   0.672E-03
  10 F= -.80284126E+01 E0= -.80284126E+01  d E =-.843196E-03
 curvature:  -0.04 expect dE=-0.165E-04 dE for cont linesearch -0.216E-06
 trial: gam= 0.40275 g(F)=  0.390E-03 g(S)=  0.447E-04 ort =-0.857E-04 (trialstep = 0.107E+01)
 search vector abs. value=  0.575E-03
 bond charge predicted
       N       E                     dE             d eps       ncg     rms          rms(c)
DAV:   1    -0.768834808498E+01   -0.38541E-03   -0.68513E-02  5760   0.956E-01    0.173E-01
DAV:   2    -0.768804852094E+01    0.29956E-03   -0.23899E-03  8768   0.270E-01    0.466E-02
DAV:   3    -0.768800034635E+01    0.48175E-04   -0.11422E-04  8608   0.539E-02
  11 F= -.80288046E+01 E0= -.80288046E+01  d E =-.391976E-03
 ZBRENT: can't locate minimum, use default step
 trial-energy change:   -0.000392  1 .order   -0.000432   -0.000426   -0.000438
 step:   4.2607(harm=  4.2607)  dis= 0.01508  next Energy=    -8.030211 (dE=-0.180E-02)
 bond charge predicted
       N       E                     dE             d eps       ncg     rms          rms(c)
DAV:   1    -0.769083246687E+01   -0.27839E-02   -0.61350E-01  5760   0.285E+00    0.508E-01
DAV:   2    -0.768806219632E+01    0.27703E-02   -0.21538E-02  9472   0.809E-01    0.146E-01
DAV:   3    -0.768760962232E+01    0.45257E-03   -0.10073E-03  8288   0.161E-01    0.110E-01
DAV:   4    -0.768753972793E+01    0.69894E-04   -0.16432E-04  7296   0.577E-02
  12 F= -.80293797E+01 E0= -.80293797E+01  d E =-.967116E-03
 curvature:  -4.65 expect dE=-0.115E-03 dE for cont linesearch -0.775E-04
 trial: gam=-0.01817 g(F)=  0.898E-05 g(S)=  0.158E-04 ort = 0.979E-04 (trialstep = 0.170E+01)
 search vector abs. value=  0.214E-04
 reached required accuracy - stopping structural energy minimisation
 writing wavefunctions
