unknown system                          
           1
     3.899600    0.000000    0.000000
    -1.949800    3.377153    0.000000
     0.000000    0.000000   17.875700
   Cd   Cl
     1     2
Direct configuration=     1
   0.00000000  0.00000000  0.50000000
   0.66666669  0.33333334  0.58044000
   0.33333331  0.66666666  0.41956000
unknown system                          
           1
     3.887313    0.000000    0.000000
    -1.943656    3.366512    0.000000
     0.000000    0.000000   17.875700
   Cd   Cl
     1     2
Direct configuration=     2
  -0.00000000  0.00000000  0.50000000
   0.66666669  0.33333334  0.58050568
   0.33333331  0.66666666  0.41949432
unknown system                          
           1
     3.883455    0.000000    0.000000
    -1.941727    3.363170    0.000000
     0.000000    0.000000   17.875700
   Cd   Cl
     1     2
Direct configuration=     3
  -0.00000000  0.00000000  0.50000000
   0.66666669  0.33333334  0.58052630
   0.33333331  0.66666666  0.41947370
unknown system                          
           1
     3.875739    0.000000    0.000000
    -1.937869    3.356488    0.000000
     0.000000    0.000000   17.875700
   Cd   Cl
     1     2
Direct configuration=     4
  -0.00000000  0.00000000  0.50000000
   0.66666669  0.33333334  0.58056754
   0.33333331  0.66666666  0.41943246
unknown system                          
           1
     3.878678    0.000000    0.000000
    -1.939339    3.359033    0.000000
     0.000000    0.000000   17.875700
   Cd   Cl
     1     2
Direct configuration=     5
  -0.00000000  0.00000000  0.50000000
   0.66666669  0.33333334  0.58055183
   0.33333331  0.66666666  0.41944817
unknown system                          
           1
     3.881551    0.000000    0.000000
    -1.940775    3.361522    0.000000
     0.000000    0.000000   17.875700
   Cd   Cl
     1     2
Direct configuration=     6
  -0.00000000  0.00000000  0.50000000
   0.66666669  0.33333334  0.58053648
   0.33333331  0.66666666  0.41946352
unknown system                          
           1
     3.882556    0.000000    0.000000
    -1.941278    3.362392    0.000000
     0.000000    0.000000   17.875700
   Cd   Cl
     1     2
Direct configuration=     7
  -0.00000000  0.00000000  0.50000000
   0.66666669  0.33333334  0.58053110
   0.33333331  0.66666666  0.41946890
unknown system                          
           1
     3.883048    0.000000    0.000000
    -1.941524    3.362818    0.000000
     0.000000    0.000000   17.875700
   Cd   Cl
     1     2
Direct configuration=     8
  -0.00000000  0.00000000  0.50000000
   0.66666669  0.33333334  0.58052848
   0.33333331  0.66666666  0.41947152
unknown system                          
           1
     3.883212    0.000000    0.000000
    -1.941606    3.362960    0.000000
     0.000000    0.000000   17.875700
   Cd   Cl
     1     2
Direct configuration=     9
  -0.00000000  0.00000000  0.50000000
   0.66666669  0.33333334  0.58052760
   0.33333331  0.66666666  0.41947240
unknown system                          
           1
     3.883308    0.000000    0.000000
    -1.941654    3.363044    0.000000
     0.000000    0.000000   17.875700
   Cd   Cl
     1     2
Direct configuration=    10
  -0.00000000  0.00000000  0.50000000
   0.66666669  0.33333334  0.58052708
   0.33333331  0.66666666  0.41947292
unknown system                          
           1
     3.880540    0.000000    0.000000
    -1.940270    3.360646    0.000000
     0.000000    0.000000   17.875700
   Cd   Cl
     1     2
Direct configuration=    11
  -0.00000000 -0.00000000  0.50000000
   0.66666669  0.33333334  0.58073799
   0.33333331  0.66666666  0.41926201
unknown system                          
           1
     3.872233    0.000000    0.000000
    -1.936117    3.353453    0.000000
     0.000000    0.000000   17.875700
   Cd   Cl
     1     2
Direct configuration=    12
  -0.00000000 -0.00000000  0.50000000
   0.66666669  0.33333334  0.58137071
   0.33333331  0.66666666  0.41862929
