 running   24 mpi-ranks, with    1 threads/rank, on    1 nodes
 distrk:  each k-point on   24 cores,    1 groups
 distr:  one band on   12 cores,    2 groups
 vasp.6.4.0 14Feb23 (build Dec 31 2025 13:57:05) complex                        
  
 POSCAR found type information on POSCAR CdClZnS 
 POSCAR found :  4 types and      62 ions
 Reading from existing POTCAR
 scaLAPACK will be used
 Reading from existing POTCAR
 -----------------------------------------------------------------------------
|                                                                             |
|               ----> ADVICE to this user running VASP <----                  |
|                                                                             |
|     You have a (more or less) 'large supercell' and for larger cells it     |
|     might be more efficient to use real-space projection operators.         |
|     Therefore, try LREAL= Auto in the INCAR file.                           |
|     Mind: For very accurate calculation, you might also keep the            |
|     reciprocal projection scheme (i.e. LREAL=.FALSE.).                      |
|                                                                             |
 -----------------------------------------------------------------------------

 LDA part: xc-table for Pade appr. of Perdew
 POSCAR, INCAR and KPOINTS ok, starting setup
 FFT: planning ... GRIDC
 FFT: planning ... GRID_SOFT
 FFT: planning ... GRID
 WAVECAR not read
 WARNING: random wavefunctions but no delay for mixing, default for NELMDL
 entering main loop
       N       E                     dE             d eps       ncg     rms          rms(c)
DAV:   1     0.455000000687E+04    0.45500E+04   -0.22839E+05  6056   0.144E+03
DAV:   2     0.506277920639E+03   -0.40437E+04   -0.38625E+04  6840   0.349E+02
DAV:   3    -0.157677591387E+03   -0.66396E+03   -0.65823E+03  6864   0.140E+02
DAV:   4    -0.193112229367E+03   -0.35435E+02   -0.35173E+02  6760   0.325E+01
DAV:   5    -0.194161324350E+03   -0.10491E+01   -0.10478E+01  7000   0.548E+00    0.378E+01
DAV:   6    -0.179723555387E+03    0.14438E+02   -0.27749E+01  8368   0.382E+01    0.301E+01
DAV:   7    -0.180624030854E+03   -0.90048E+00   -0.37388E+01  6528   0.101E+01    0.114E+01
DAV:   8    -0.179792512108E+03    0.83152E+00   -0.48460E+00  7328   0.869E+00    0.310E+00
DAV:   9    -0.179784800104E+03    0.77120E-02   -0.57095E-01  7552   0.354E+00    0.909E-01
DAV:  10    -0.179788510429E+03   -0.37103E-02   -0.88284E-02  7208   0.147E+00    0.701E-01
DAV:  11    -0.179790994376E+03   -0.24839E-02   -0.19953E-02  7480   0.666E-01    0.513E-01
DAV:  12    -0.179793118566E+03   -0.21242E-02   -0.62260E-03  7496   0.674E-01    0.210E-01
DAV:  13    -0.179794157089E+03   -0.10385E-02   -0.43560E-03  7168   0.300E-01    0.915E-02
DAV:  14    -0.179794828102E+03   -0.67101E-03   -0.16695E-03  7072   0.147E-01    0.632E-02
DAV:  15    -0.179795525785E+03   -0.69768E-03   -0.49792E-04  6800   0.749E-02    0.293E-02
DAV:  16    -0.179796044721E+03   -0.51894E-03   -0.22308E-04  7136   0.622E-02    0.192E-02
DAV:  17    -0.179796265491E+03   -0.22077E-03   -0.93851E-05  7032   0.387E-02    0.213E-02
DAV:  18    -0.179796635291E+03   -0.36980E-03   -0.42423E-05  6800   0.249E-02    0.102E-02
DAV:  19    -0.179796851858E+03   -0.21657E-03   -0.33963E-05  6960   0.190E-02    0.826E-03
DAV:  20    -0.179796953859E+03   -0.10200E-03   -0.79068E-06  6928   0.123E-02    0.456E-03
DAV:  21    -0.179797118734E+03   -0.16488E-03   -0.18948E-05  6496   0.627E-03    0.537E-03
DAV:  22    -0.179797143678E+03   -0.24943E-04   -0.15248E-06  7384   0.470E-03    0.449E-03
DAV:  23    -0.179797165166E+03   -0.21488E-04   -0.68088E-07  6784   0.321E-03    0.296E-03
DAV:  24    -0.179797182361E+03   -0.17196E-04   -0.83577E-07  6912   0.294E-03    0.139E-03
DAV:  25    -0.179797186579E+03   -0.42178E-05   -0.39856E-07  6536   0.144E-03    0.159E-03
DAV:  26    -0.179797188132E+03   -0.15525E-05   -0.76785E-08  6488   0.117E-03    0.109E-03
DAV:  27    -0.179797189231E+03   -0.10997E-05   -0.45426E-08  5696   0.685E-04    0.695E-04
DAV:  28    -0.179797190605E+03   -0.13742E-05   -0.53256E-08  4896   0.465E-04    0.651E-04
DAV:  29    -0.179797191106E+03   -0.50046E-06   -0.29214E-08  4792   0.440E-04    0.581E-04
DAV:  30    -0.179797191230E+03   -0.12423E-06   -0.61574E-09  4336   0.235E-04    0.550E-04
DAV:  31    -0.179797191326E+03   -0.96028E-07   -0.13882E-08  4456   0.202E-04    0.554E-04
DAV:  32    -0.179797191261E+03    0.65033E-07   -0.71583E-09  4256   0.226E-04    0.536E-04
DAV:  33    -0.179797191237E+03    0.23894E-07   -0.12939E-09  4304   0.982E-05    0.531E-04
DAV:  34    -0.179797191230E+03    0.71013E-08    0.17973E-10  3856   0.844E-05
   1 F= -.19024220E+03 E0= -.19024220E+03  d E =-.190242E+03
 curvature:   0.00 expect dE= 0.000E+00 dE for cont linesearch  0.000E+00
 trial: gam= 0.00000 g(F)=  0.167E+00 g(S)=  0.000E+00 ort = 0.000E+00 (trialstep = 0.100E+01)
 search vector abs. value=  0.167E+00
 bond charge predicted
       N       E                     dE             d eps       ncg     rms          rms(c)
DAV:   1    -0.179934833210E+03   -0.13764E+00   -0.39577E+01  6080   0.885E+00    0.877E-01
DAV:   2    -0.179952282343E+03   -0.17449E-01   -0.20002E-01  7120   0.100E+00    0.389E-01
DAV:   3    -0.179952054605E+03    0.22774E-03   -0.12387E-02  6792   0.501E-01    0.271E-01
DAV:   4    -0.179951761447E+03    0.29316E-03   -0.15787E-03  7776   0.377E-01    0.159E-01
DAV:   5    -0.179951685004E+03    0.76443E-04   -0.10415E-03  7576   0.974E-02    0.540E-02
DAV:   6    -0.179951726353E+03   -0.41349E-04   -0.57965E-04  7272   0.930E-02    0.476E-02
DAV:   7    -0.179951730659E+03   -0.43058E-05   -0.53223E-05  6536   0.267E-02    0.427E-02
DAV:   8    -0.179951732745E+03   -0.20856E-05   -0.13186E-05  7280   0.360E-02    0.318E-02
DAV:   9    -0.179951739800E+03   -0.70551E-05   -0.16314E-05  7632   0.278E-02    0.158E-02
DAV:  10    -0.179951741480E+03   -0.16805E-05   -0.10170E-05  7384   0.188E-02    0.115E-02
DAV:  11    -0.179951742400E+03   -0.91916E-06   -0.22745E-06  6944   0.455E-03    0.891E-03
DAV:  12    -0.179951743699E+03   -0.12994E-05   -0.55949E-07  8000   0.903E-03    0.454E-03
DAV:  13    -0.179951746045E+03   -0.23465E-05   -0.81498E-07  7160   0.849E-03    0.182E-03
DAV:  14    -0.179951746479E+03   -0.43339E-06   -0.86344E-07  6408   0.238E-03    0.201E-03
DAV:  15    -0.179951746919E+03   -0.44069E-06   -0.21460E-08  4520   0.138E-03    0.131E-03
DAV:  16    -0.179951748185E+03   -0.12657E-05   -0.15805E-07  6792   0.226E-03    0.131E-03
DAV:  17    -0.179951748573E+03   -0.38758E-06   -0.99433E-08  6368   0.218E-03    0.861E-04
DAV:  18    -0.179951748825E+03   -0.25272E-06   -0.18667E-08  4568   0.581E-04    0.690E-04
DAV:  19    -0.179951749155E+03   -0.32919E-06   -0.13444E-08  4312   0.512E-04    0.622E-04
DAV:  20    -0.179951749458E+03   -0.30317E-06   -0.13456E-08  4368   0.762E-04    0.565E-04
DAV:  21    -0.179951749648E+03   -0.19062E-06   -0.81019E-09  4344   0.300E-04    0.606E-04
DAV:  22    -0.179951749736E+03   -0.87144E-07   -0.27470E-09  4184   0.187E-04    0.583E-04
DAV:  23    -0.179951749817E+03   -0.81200E-07   -0.39973E-09  4168   0.131E-04    0.560E-04
DAV:  24    -0.179951749840E+03   -0.22927E-07   -0.61856E-10  4192   0.178E-04    0.564E-04
DAV:  25    -0.179951749848E+03   -0.80108E-08    0.40661E-12  4096   0.627E-05
   2 F= -.19039445E+03 E0= -.19039445E+03  d E =-.152249E+00
 ZBRENT: can't locate minimum, use default step
 trial-energy change:   -0.152249  1 .order   -0.152063   -0.167095   -0.137032
 step:   4.0000(harm=  5.5581)  dis= 0.18273  next Energy=  -190.706565 (dE=-0.464E+00)
 bond charge predicted
       N       E                     dE             d eps       ncg     rms          rms(c)
DAV:   1    -0.179871103154E+03    0.80647E-01   -0.39545E+02  6064   0.296E+01    0.267E+00
DAV:   2    -0.180196608400E+03   -0.32551E+00   -0.36964E+00  7696   0.612E+00    0.157E+00
DAV:   3    -0.180215438946E+03   -0.18831E-01   -0.53724E-01  6816   0.397E+00    0.100E+00
DAV:   4    -0.180214341855E+03    0.10971E-02   -0.41163E-02  7704   0.101E+00    0.652E-01
DAV:   5    -0.180213201855E+03    0.11400E-02   -0.19817E-02  7616   0.446E-01    0.270E-01
DAV:   6    -0.180213415601E+03   -0.21375E-03   -0.70391E-03  7320   0.438E-01    0.159E-01
DAV:   7    -0.180213444671E+03   -0.29070E-04   -0.10203E-03  7240   0.215E-01    0.114E-01
DAV:   8    -0.180213514236E+03   -0.69565E-04   -0.61815E-04  6544   0.545E-02    0.103E-01
DAV:   9    -0.180213518300E+03   -0.40642E-05   -0.18734E-04  7248   0.127E-01    0.378E-02
DAV:  10    -0.180213544963E+03   -0.26663E-04   -0.10429E-04  7952   0.579E-02    0.250E-02
DAV:  11    -0.180213547075E+03   -0.21119E-05   -0.41557E-05  7320   0.313E-02    0.172E-02
DAV:  12    -0.180213556308E+03   -0.92330E-05   -0.81599E-06  7544   0.137E-02    0.804E-03
DAV:  13    -0.180213567658E+03   -0.11351E-04   -0.71318E-06  6560   0.997E-03    0.596E-03
DAV:  14    -0.180213572648E+03   -0.49898E-05   -0.17996E-06  7072   0.644E-03    0.419E-03
DAV:  15    -0.180213578558E+03   -0.59096E-05   -0.83291E-07  6672   0.451E-03    0.254E-03
DAV:  16    -0.180213582692E+03   -0.41344E-05   -0.50552E-07  6704   0.314E-03    0.124E-03
DAV:  17    -0.180213584792E+03   -0.20995E-05   -0.17735E-07  6400   0.156E-03    0.105E-03
DAV:  18    -0.180213587076E+03   -0.22843E-05   -0.68674E-08  5872   0.875E-04    0.722E-04
DAV:  19    -0.180213590779E+03   -0.37031E-05   -0.14535E-07  5000   0.843E-04    0.671E-04
DAV:  20    -0.180213592177E+03   -0.13980E-05   -0.39875E-08  5040   0.509E-04    0.720E-04
DAV:  21    -0.180213593389E+03   -0.12117E-05   -0.33311E-08  5128   0.974E-04    0.626E-04
DAV:  22    -0.180213594639E+03   -0.12498E-05   -0.37908E-08  4864   0.319E-04    0.690E-04
DAV:  23    -0.180213595242E+03   -0.60291E-06   -0.11792E-08  4424   0.479E-04    0.585E-04
DAV:  24    -0.180213595537E+03   -0.29583E-06   -0.51032E-09  4272   0.131E-04    0.574E-04
DAV:  25    -0.180213595686E+03   -0.14871E-06   -0.97970E-10  4200   0.156E-04    0.585E-04
DAV:  26    -0.180213595845E+03   -0.15899E-06   -0.10480E-09  4144   0.171E-04    0.578E-04
DAV:  27    -0.180213595917E+03   -0.71748E-07   -0.30483E-10  4168   0.737E-05    0.573E-04
DAV:  28    -0.180213595931E+03   -0.14319E-07    0.32268E-10  3976   0.751E-05    0.571E-04
DAV:  29    -0.180213595954E+03   -0.22366E-07    0.38251E-10  3928   0.335E-05    0.572E-04
DAV:  30    -0.180213595984E+03   -0.30319E-07    0.49520E-10  4008   0.307E-05    0.571E-04
DAV:  31    -0.180213595998E+03   -0.14457E-07    0.58793E-10  3832   0.312E-05    0.571E-04
DAV:  32    -0.180213596003E+03   -0.43656E-08    0.61146E-10  3776   0.216E-05
   3 F= -.19064725E+03 E0= -.19064725E+03  d E =-.405055E+00
 curvature:  -2.45 expect dE=-0.211E+00 dE for cont linesearch -0.968E-02
 ZBRENT: extrapolating
 opt :   4.6914  next Energy=  -190.656124 (dE=-0.414E+00)
 bond charge predicted
       N       E                     dE             d eps       ncg     rms          rms(c)
DAV:   1    -0.180216620172E+03   -0.30242E-02   -0.18831E+01  6092   0.615E+00    0.558E-01
DAV:   2    -0.180223411903E+03   -0.67917E-02   -0.79862E-02  7176   0.719E-01    0.225E-01
DAV:   3    -0.180223890368E+03   -0.47847E-03   -0.10970E-02  6832   0.405E-01    0.193E-01
DAV:   4    -0.180223751042E+03    0.13933E-03   -0.79041E-04  7832   0.249E-01    0.122E-01
DAV:   5    -0.180223681988E+03    0.69053E-04   -0.37698E-04  9368   0.137E-01    0.536E-02
DAV:   6    -0.180223696928E+03   -0.14940E-04   -0.33771E-04  7344   0.526E-02    0.322E-02
DAV:   7    -0.180223706105E+03   -0.91765E-05   -0.13716E-04  7032   0.573E-02    0.226E-02
DAV:   8    -0.180223706945E+03   -0.83962E-06   -0.87517E-06  7200   0.214E-02    0.171E-02
DAV:   9    -0.180223708572E+03   -0.16277E-05   -0.49390E-06  7488   0.131E-02    0.833E-03
DAV:  10    -0.180223709882E+03   -0.13093E-05   -0.31416E-06  6944   0.769E-03    0.808E-03
DAV:  11    -0.180223710338E+03   -0.45619E-06   -0.11415E-06  6424   0.246E-03    0.742E-03
DAV:  12    -0.180223710667E+03   -0.32884E-06   -0.32735E-07  6744   0.589E-03    0.434E-03
DAV:  13    -0.180223711522E+03   -0.85566E-06   -0.37444E-07  7200   0.594E-03    0.116E-03
DAV:  14    -0.180223712115E+03   -0.59306E-06   -0.30955E-07  7632   0.225E-03    0.280E-03
DAV:  15    -0.180223712213E+03   -0.98138E-07   -0.14304E-07  5992   0.326E-03    0.145E-03
DAV:  16    -0.180223712521E+03   -0.30718E-06   -0.54714E-08  6152   0.233E-03    0.625E-04
DAV:  17    -0.180223712779E+03   -0.25867E-06   -0.32523E-08  5640   0.572E-04    0.612E-04
DAV:  18    -0.180223712895E+03   -0.11578E-06   -0.28914E-09  4232   0.411E-04    0.687E-04
DAV:  19    -0.180223713094E+03   -0.19925E-06   -0.65416E-09  4120   0.393E-04    0.615E-04
DAV:  20    -0.180223713276E+03   -0.18129E-06   -0.43005E-09  4296   0.347E-04    0.579E-04
DAV:  21    -0.180223713334E+03   -0.58673E-07   -0.85997E-10  4184   0.192E-04    0.594E-04
DAV:  22    -0.180223713369E+03   -0.34423E-07   -0.51261E-10  4008   0.160E-04    0.581E-04
DAV:  23    -0.180223713460E+03   -0.91699E-07   -0.10945E-09  4040   0.802E-05    0.580E-04
DAV:  24    -0.180223713512E+03   -0.51528E-07   -0.29792E-10  4184   0.291E-04    0.571E-04
DAV:  25    -0.180223713542E+03   -0.29759E-07   -0.40964E-10  4064   0.610E-05    0.569E-04
DAV:  26    -0.180223713547E+03   -0.50059E-08    0.44521E-10  3848   0.664E-05
   4 F= -.19065432E+03 E0= -.19065432E+03  d E =-.412120E+00
 curvature:  -2.25 expect dE=-0.245E+00 dE for cont linesearch -0.421E-03
 trial: gam= 0.68384 g(F)=  0.109E+00 g(S)=  0.000E+00 ort =-0.559E-02 (trialstep = 0.162E+01)
 search vector abs. value=  0.179E+00
 bond charge predicted
       N       E                     dE             d eps       ncg     rms          rms(c)
DAV:   1    -0.180241709139E+03   -0.17996E-01   -0.62864E+01  5976   0.117E+01    0.254E+00
DAV:   2    -0.180348443149E+03   -0.10673E+00   -0.11856E+00  6872   0.201E+00    0.107E+00
DAV:   3    -0.180346151493E+03    0.22917E-02   -0.45579E-02  6872   0.917E-01    0.829E-01
DAV:   4    -0.180344348141E+03    0.18034E-02   -0.74214E-03  7776   0.589E-01    0.625E-01
DAV:   5    -0.180343545627E+03    0.80251E-03   -0.63762E-03  6640   0.178E-01    0.279E-01
DAV:   6    -0.180343655572E+03   -0.10994E-03   -0.17515E-03  7680   0.183E-01    0.820E-02
DAV:   7    -0.180343665076E+03   -0.95046E-05   -0.29094E-04  7512   0.949E-02    0.653E-02
DAV:   8    -0.180343662317E+03    0.27592E-05   -0.12675E-04  7552   0.548E-02    0.431E-02
DAV:   9    -0.180343679808E+03   -0.17491E-04   -0.92341E-05  7296   0.280E-02    0.208E-02
DAV:  10    -0.180343691263E+03   -0.11454E-04   -0.23870E-05  6656   0.159E-02    0.112E-02
DAV:  11    -0.180343704951E+03   -0.13689E-04   -0.29605E-06  6632   0.143E-02    0.641E-03
DAV:  12    -0.180343726989E+03   -0.22038E-04   -0.24467E-06  7584   0.825E-03    0.284E-03
DAV:  13    -0.180343733528E+03   -0.65388E-05   -0.12549E-06  6872   0.495E-03    0.171E-03
DAV:  14    -0.180343743993E+03   -0.10464E-04   -0.41735E-07  6088   0.262E-03    0.100E-03
DAV:  15    -0.180343755547E+03   -0.11554E-04   -0.65384E-07  6072   0.250E-03    0.126E-03
DAV:  16    -0.180343760766E+03   -0.52196E-05   -0.31279E-07  6296   0.237E-03    0.113E-03
DAV:  17    -0.180343762556E+03   -0.17901E-05   -0.52378E-08  5728   0.501E-04    0.868E-04
DAV:  18    -0.180343764829E+03   -0.22728E-05   -0.66444E-08  4944   0.679E-04    0.708E-04
DAV:  19    -0.180343766187E+03   -0.13581E-05   -0.42718E-08  4632   0.303E-04    0.657E-04
DAV:  20    -0.180343766590E+03   -0.40263E-06   -0.65914E-09  4408   0.335E-04    0.634E-04
DAV:  21    -0.180343767010E+03   -0.42008E-06   -0.68081E-09  4232   0.192E-04    0.630E-04
DAV:  22    -0.180343767192E+03   -0.18196E-06   -0.15876E-09  4232   0.124E-04    0.627E-04
DAV:  23    -0.180343767271E+03   -0.78588E-07   -0.21752E-10  4200   0.679E-05    0.627E-04
DAV:  24    -0.180343767327E+03   -0.56032E-07    0.16110E-10  4072   0.669E-05    0.625E-04
DAV:  25    -0.180343767357E+03   -0.30035E-07    0.41506E-10  3984   0.343E-05    0.625E-04
DAV:  26    -0.180343767371E+03   -0.14363E-07    0.54132E-10  3896   0.246E-05    0.625E-04
DAV:  27    -0.180343767383E+03   -0.11620E-07    0.56195E-10  3808   0.386E-05    0.625E-04
DAV:  28    -0.180343767390E+03   -0.78653E-08    0.57930E-10  3840   0.128E-05
   5 F= -.19076877E+03 E0= -.19076877E+03  d E =-.114457E+00
 trial-energy change:   -0.114457  1 .order   -0.113630   -0.169982   -0.057278
 step:   2.3947(harm=  2.4450)  dis= 0.09787  next Energy=  -190.782530 (dE=-0.128E+00)
 bond charge predicted
       N       E                     dE             d eps       ncg     rms          rms(c)
DAV:   1    -0.180337686347E+03    0.60810E-02   -0.14143E+01  5992   0.541E+00    0.117E+00
DAV:   2    -0.180361525314E+03   -0.23839E-01   -0.26509E-01  6872   0.939E-01    0.477E-01
DAV:   3    -0.180360907138E+03    0.61818E-03   -0.92496E-03  6816   0.391E-01    0.375E-01
DAV:   4    -0.180360507009E+03    0.40013E-03   -0.14952E-03  7960   0.260E-01    0.274E-01
DAV:   5    -0.180360308244E+03    0.19877E-03   -0.14351E-03  6664   0.923E-02    0.115E-01
DAV:   6    -0.180360343743E+03   -0.35500E-04   -0.43407E-04  7664   0.803E-02    0.377E-02
DAV:   7    -0.180360346702E+03   -0.29589E-05   -0.61529E-05  7376   0.518E-02    0.290E-02
DAV:   8    -0.180360346552E+03    0.14991E-06   -0.23243E-05  7456   0.230E-02    0.177E-02
DAV:   9    -0.180360351935E+03   -0.53828E-05   -0.19306E-05  7432   0.120E-02    0.785E-03
DAV:  10    -0.180360354130E+03   -0.21948E-05   -0.41887E-06  6328   0.641E-03    0.424E-03
DAV:  11    -0.180360357903E+03   -0.37735E-05   -0.47687E-07  6528   0.539E-03    0.289E-03
DAV:  12    -0.180360363287E+03   -0.53836E-05   -0.41635E-07  7704   0.267E-03    0.173E-03
DAV:  13    -0.180360366738E+03   -0.34506E-05   -0.20060E-07  6040   0.154E-03    0.129E-03
DAV:  14    -0.180360370146E+03   -0.34083E-05   -0.12658E-07  5392   0.114E-03    0.897E-04
DAV:  15    -0.180360372765E+03   -0.26187E-05   -0.98004E-08  5056   0.833E-04    0.753E-04
DAV:  16    -0.180360374158E+03   -0.13932E-05   -0.50597E-08  5312   0.436E-04    0.820E-04
DAV:  17    -0.180360375036E+03   -0.87809E-06   -0.21250E-08  4392   0.349E-04    0.747E-04
DAV:  18    -0.180360375651E+03   -0.61517E-06   -0.14633E-08  4304   0.171E-04    0.667E-04
DAV:  19    -0.180360375855E+03   -0.20351E-06   -0.24244E-09  4320   0.139E-04    0.647E-04
DAV:  20    -0.180360376011E+03   -0.15680E-06   -0.13353E-09  4104   0.939E-05    0.636E-04
DAV:  21    -0.180360376123E+03   -0.11178E-06   -0.88057E-10  4144   0.524E-05    0.636E-04
DAV:  22    -0.180360376174E+03   -0.50619E-07    0.14170E-10  4152   0.624E-05    0.635E-04
DAV:  23    -0.180360376210E+03   -0.36278E-07    0.33605E-10  4016   0.370E-05    0.634E-04
DAV:  24    -0.180360376232E+03   -0.22410E-07    0.43927E-10  3992   0.289E-05    0.634E-04
DAV:  25    -0.180360376247E+03   -0.14734E-07    0.54938E-10  3880   0.173E-05    0.634E-04
DAV:  26    -0.180360376252E+03   -0.51878E-08    0.60646E-10  3784   0.105E-05
   6 F= -.19078245E+03 E0= -.19078245E+03  d E =-.128131E+00
 curvature:  -2.08 expect dE=-0.768E-01 dE for cont linesearch -0.981E-06
 trial: gam= 0.09172 g(F)=  0.369E-01 g(S)=  0.000E+00 ort =-0.291E-03 (trialstep = 0.178E+01)
 search vector abs. value=  0.384E-01
 bond charge predicted
       N       E                     dE             d eps       ncg     rms          rms(c)
DAV:   1    -0.180370357508E+03   -0.99813E-02   -0.17975E+01  5976   0.669E+00    0.163E+00
DAV:   2    -0.180399410588E+03   -0.29053E-01   -0.32906E-01  6752   0.102E+00    0.548E-01
DAV:   3    -0.180398929245E+03    0.48134E-03   -0.13781E-02  6736   0.375E-01    0.394E-01
DAV:   4    -0.180398353990E+03    0.57526E-03   -0.25608E-03  7672   0.439E-01    0.247E-01
DAV:   5    -0.180398257825E+03    0.96165E-04   -0.12666E-03  7984   0.141E-01    0.107E-01
DAV:   6    -0.180398272738E+03   -0.14913E-04   -0.38266E-04  6720   0.571E-02    0.759E-02
DAV:   7    -0.180398266770E+03    0.59683E-05   -0.18714E-04  7440   0.554E-02    0.583E-02
DAV:   8    -0.180398264257E+03    0.25127E-05   -0.31436E-05  8000   0.252E-02    0.324E-02
DAV:   9    -0.180398265865E+03   -0.16083E-05   -0.10124E-05  8080   0.155E-02    0.208E-02
DAV:  10    -0.180398270274E+03   -0.44091E-05   -0.46683E-06  7104   0.898E-03    0.113E-02
DAV:  11    -0.180398276831E+03   -0.65565E-05   -0.25903E-06  6952   0.758E-03    0.658E-03
DAV:  12    -0.180398279373E+03   -0.25421E-05   -0.88123E-07  6568   0.319E-03    0.535E-03
DAV:  13    -0.180398282763E+03   -0.33905E-05   -0.18119E-07  6624   0.252E-03    0.321E-03
DAV:  14    -0.180398287172E+03   -0.44085E-05   -0.23821E-07  6320   0.127E-03    0.209E-03
DAV:  15    -0.180398289072E+03   -0.19002E-05   -0.15480E-07  6488   0.108E-03    0.259E-03
DAV:  16    -0.180398290897E+03   -0.18247E-05   -0.29577E-08  4408   0.433E-04    0.208E-03
DAV:  17    -0.180398293314E+03   -0.24175E-05   -0.90842E-08  4992   0.575E-04    0.809E-04
DAV:  18    -0.180398294478E+03   -0.11641E-05   -0.36136E-08  5072   0.459E-04    0.823E-04
DAV:  19    -0.180398295231E+03   -0.75284E-06   -0.12294E-08  4312   0.164E-04    0.677E-04
DAV:  20    -0.180398295922E+03   -0.69109E-06   -0.12778E-08  4312   0.185E-04    0.666E-04
DAV:  21    -0.180398296396E+03   -0.47369E-06   -0.95479E-09  4288   0.166E-04    0.668E-04
DAV:  22    -0.180398296476E+03   -0.79650E-07   -0.26598E-10  4304   0.105E-04    0.658E-04
DAV:  23    -0.180398296680E+03   -0.20499E-06   -0.21587E-09  3960   0.756E-05    0.653E-04
DAV:  24    -0.180398296789E+03   -0.10848E-06   -0.55832E-10  4208   0.647E-05    0.647E-04
DAV:  25    -0.180398296806E+03   -0.17186E-07    0.41090E-10  4048   0.386E-05    0.645E-04
DAV:  26    -0.180398296834E+03   -0.27539E-07    0.51773E-10  3904   0.238E-05    0.645E-04
DAV:  27    -0.180398296868E+03   -0.34197E-07    0.54746E-10  3960   0.180E-05    0.645E-04
DAV:  28    -0.180398296884E+03   -0.15636E-07    0.58705E-10  3872   0.130E-05    0.645E-04
DAV:  29    -0.180398296892E+03   -0.81709E-08    0.61526E-10  3728   0.109E-05
   7 F= -.19082215E+03 E0= -.19082215E+03  d E =-.397078E-01
 trial-energy change:   -0.039708  1 .order   -0.039575   -0.065475   -0.013674
 step:   2.2356(harm=  2.2446)  dis= 0.02341  next Energy=  -190.823927 (dE=-0.415E-01)
 bond charge predicted
       N       E                     dE             d eps       ncg     rms          rms(c)
DAV:   1    -0.180397749293E+03    0.54759E-03   -0.12040E+00  5976   0.173E+00    0.401E-01
DAV:   2    -0.180399726965E+03   -0.19777E-02   -0.22325E-02  6752   0.261E-01    0.146E-01
DAV:   3    -0.180399692689E+03    0.34276E-04   -0.89870E-04  6728   0.899E-02    0.104E-01
DAV:   4    -0.180399652847E+03    0.39842E-04   -0.16918E-04  7728   0.115E-01    0.626E-02
DAV:   5    -0.180399647467E+03    0.53794E-05   -0.85008E-05  7944   0.376E-02    0.291E-02
DAV:   6    -0.180399649278E+03   -0.18107E-05   -0.25060E-05  6704   0.151E-02    0.205E-02
DAV:   7    -0.180399648517E+03    0.76114E-06   -0.12602E-05  7328   0.149E-02    0.150E-02
DAV:   8    -0.180399648579E+03   -0.61867E-07   -0.23091E-06  7728   0.598E-03    0.826E-03
DAV:   9    -0.180399648798E+03   -0.21929E-06   -0.56482E-07  7656   0.380E-03    0.547E-03
DAV:  10    -0.180399649213E+03   -0.41524E-06   -0.27562E-07  6840   0.229E-03    0.333E-03
DAV:  11    -0.180399649830E+03   -0.61712E-06   -0.17537E-07  6720   0.183E-03    0.217E-03
DAV:  12    -0.180399650108E+03   -0.27733E-06   -0.51484E-08  6016   0.822E-04    0.145E-03
DAV:  13    -0.180399650452E+03   -0.34460E-06   -0.13470E-08  4200   0.648E-04    0.908E-04
DAV:  14    -0.180399650843E+03   -0.39067E-06   -0.17554E-08  4440   0.349E-04    0.799E-04
DAV:  15    -0.180399651011E+03   -0.16807E-06   -0.71570E-09  4216   0.277E-04    0.838E-04
DAV:  16    -0.180399651259E+03   -0.24775E-06   -0.46784E-09  4072   0.211E-04    0.797E-04
DAV:  17    -0.180399651485E+03   -0.22588E-06   -0.51328E-09  4232   0.141E-04    0.670E-04
DAV:  18    -0.180399651657E+03   -0.17192E-06   -0.26222E-09  4120   0.140E-04    0.665E-04
DAV:  19    -0.180399651760E+03   -0.10303E-06   -0.10317E-09  4128   0.782E-05    0.657E-04
DAV:  20    -0.180399651832E+03   -0.72119E-07   -0.47233E-10  4104   0.787E-05    0.651E-04
DAV:  21    -0.180399651892E+03   -0.60776E-07   -0.22966E-10  4072   0.422E-05    0.652E-04
DAV:  22    -0.180399651929E+03   -0.36809E-07    0.18142E-10  4048   0.333E-05    0.650E-04
DAV:  23    -0.180399651940E+03   -0.10572E-07    0.50820E-10  4000   0.257E-05    0.650E-04
DAV:  24    -0.180399651958E+03   -0.18132E-07    0.50976E-10  3856   0.215E-05    0.650E-04
DAV:  25    -0.180399651979E+03   -0.21282E-07    0.53044E-10  3976   0.187E-05    0.650E-04
DAV:  26    -0.180399651984E+03   -0.48021E-08    0.63627E-10  3816   0.116E-05
   8 F= -.19082394E+03 E0= -.19082394E+03  d E =-.414936E-01
 curvature:  -1.17 expect dE=-0.545E-02 dE for cont linesearch -0.977E-08
 trial: gam= 0.12565 g(F)=  0.467E-02 g(S)=  0.000E+00 ort = 0.179E-04 (trialstep = 0.187E+01)
 search vector abs. value=  0.528E-02
 bond charge predicted
       N       E                     dE             d eps       ncg     rms          rms(c)
DAV:   1    -0.180399602645E+03    0.49334E-04   -0.20495E+00  5976   0.225E+00    0.542E-01
DAV:   2    -0.180404348578E+03   -0.47459E-02   -0.53877E-02  7416   0.477E-01    0.240E-01
DAV:   3    -0.180404239741E+03    0.10884E-03   -0.20726E-03  6728   0.149E-01    0.179E-01
DAV:   4    -0.180404158055E+03    0.81685E-04   -0.22241E-04  7784   0.103E-01    0.128E-01
DAV:   5    -0.180404124543E+03    0.33513E-04   -0.14396E-04  7824   0.551E-02    0.800E-02
DAV:   6    -0.180404116378E+03    0.81645E-05   -0.11091E-04  8056   0.433E-02    0.321E-02
DAV:   7    -0.180404120976E+03   -0.45981E-05   -0.63547E-05  6576   0.187E-02    0.182E-02
DAV:   8    -0.180404120480E+03    0.49594E-06   -0.46692E-06  7536   0.161E-02    0.116E-02
DAV:   9    -0.180404120173E+03    0.30787E-06   -0.23797E-06  6440   0.388E-03    0.936E-03
DAV:  10    -0.180404120367E+03   -0.19437E-06   -0.81344E-07  7176   0.330E-03    0.539E-03
DAV:  11    -0.180404120577E+03   -0.21021E-06   -0.14070E-07  7048   0.206E-03    0.352E-03
DAV:  12    -0.180404120798E+03   -0.22057E-06   -0.45090E-08  5848   0.130E-03    0.217E-03
DAV:  13    -0.180404121185E+03   -0.38731E-06   -0.40385E-08  5648   0.219E-03    0.986E-04
DAV:  14    -0.180404121522E+03   -0.33743E-06   -0.71444E-08  6856   0.161E-03    0.108E-03
DAV:  15    -0.180404121664E+03   -0.14203E-06   -0.59823E-08  6000   0.857E-04    0.962E-04
DAV:  16    -0.180404121697E+03   -0.32502E-07   -0.40601E-09  4128   0.206E-04    0.967E-04
DAV:  17    -0.180404121752E+03   -0.54526E-07   -0.11646E-09  3984   0.407E-04    0.820E-04
DAV:  18    -0.180404121888E+03   -0.13650E-06   -0.77097E-09  4112   0.732E-04    0.662E-04
DAV:  19    -0.180404121954E+03   -0.66313E-07   -0.62010E-09  4192   0.144E-04    0.641E-04
DAV:  20    -0.180404121966E+03   -0.11743E-07   -0.68797E-10  4168   0.185E-04    0.635E-04
DAV:  21    -0.180404121988E+03   -0.21806E-07   -0.40355E-12  3920   0.785E-05    0.636E-04
DAV:  22    -0.180404122021E+03   -0.33273E-07   -0.70145E-10  4064   0.600E-05    0.635E-04
DAV:  23    -0.180404122037E+03   -0.16087E-07   -0.28599E-10  4152   0.424E-05    0.634E-04
DAV:  24    -0.180404122039E+03   -0.14916E-08    0.45791E-10  4104   0.428E-05
   9 F= -.19083030E+03 E0= -.19083030E+03  d E =-.636363E-02
 trial-energy change:   -0.006364  1 .order   -0.006335   -0.008722   -0.003948
 step:   3.3185(harm=  3.4122)  dis= 0.01389  next Energy=  -190.831851 (dE=-0.791E-02)
 bond charge predicted
       N       E                     dE             d eps       ncg     rms          rms(c)
DAV:   1    -0.180401576508E+03    0.25455E-02   -0.12366E+00  5976   0.174E+00    0.421E-01
DAV:   2    -0.180404444316E+03   -0.28678E-02   -0.32556E-02  7400   0.372E-01    0.186E-01
DAV:   3    -0.180404379879E+03    0.64437E-04   -0.12668E-03  6744   0.117E-01    0.139E-01
DAV:   4    -0.180404331211E+03    0.48668E-04   -0.13516E-04  7800   0.801E-02    0.997E-02
DAV:   5    -0.180404311659E+03    0.19553E-04   -0.85574E-05  7784   0.432E-02    0.630E-02
DAV:   6    -0.180404306825E+03    0.48335E-05   -0.69650E-05  8136   0.342E-02    0.253E-02
DAV:   7    -0.180404309517E+03   -0.26922E-05   -0.38399E-05  6576   0.148E-02    0.144E-02
DAV:   8    -0.180404309291E+03    0.22617E-06   -0.29127E-06  7496   0.124E-02    0.901E-03
DAV:   9    -0.180404309129E+03    0.16255E-06   -0.15068E-06  6360   0.305E-03    0.718E-03
DAV:  10    -0.180404309279E+03   -0.15044E-06   -0.50692E-07  7136   0.265E-03    0.419E-03
DAV:  11    -0.180404309425E+03   -0.14567E-06   -0.81750E-08  6992   0.146E-03    0.280E-03
DAV:  12    -0.180404309572E+03   -0.14722E-06   -0.23575E-08  4696   0.955E-04    0.180E-03
DAV:  13    -0.180404309816E+03   -0.24445E-06   -0.24888E-08  4880   0.151E-03    0.875E-04
DAV:  14    -0.180404310046E+03   -0.22969E-06   -0.38296E-08  5672   0.137E-03    0.906E-04
DAV:  15    -0.180404310135E+03   -0.89276E-07   -0.39992E-08  5792   0.632E-04    0.820E-04
DAV:  16    -0.180404310154E+03   -0.19063E-07   -0.24479E-09  4136   0.146E-04    0.835E-04
DAV:  17    -0.180404310176E+03   -0.21253E-07   -0.48592E-11  3880   0.209E-04    0.774E-04
DAV:  18    -0.180404310270E+03   -0.93962E-07   -0.43238E-09  3984   0.583E-04    0.647E-04
DAV:  19    -0.180404310308E+03   -0.38759E-07   -0.43136E-09  4224   0.161E-04    0.632E-04
DAV:  20    -0.180404310311E+03   -0.29249E-08   -0.63706E-10  4056   0.169E-04
  10 F= -.19083193E+03 E0= -.19083193E+03  d E =-.799073E-02
 curvature:  -1.92 expect dE=-0.502E-02 dE for cont linesearch -0.485E-05
 trial: gam= 0.53549 g(F)=  0.261E-02 g(S)=  0.000E+00 ort = 0.115E-03 (trialstep = 0.216E+01)
 search vector abs. value=  0.425E-02
 bond charge predicted
       N       E                     dE             d eps       ncg     rms          rms(c)
DAV:   1    -0.180402245320E+03    0.20650E-02   -0.31048E+00  6000   0.277E+00    0.436E-01
DAV:   2    -0.180406149972E+03   -0.39047E-02   -0.43767E-02  6792   0.376E-01    0.206E-01
DAV:   3    -0.180406107103E+03    0.42869E-04   -0.15921E-03  6736   0.141E-01    0.159E-01
DAV:   4    -0.180406052232E+03    0.54871E-04   -0.18915E-04  7656   0.100E-01    0.114E-01
DAV:   5    -0.180406024132E+03    0.28100E-04   -0.14588E-04  6704   0.307E-02    0.628E-02
DAV:   6    -0.180406029438E+03   -0.53062E-05   -0.86770E-05  6816   0.219E-02    0.242E-02
DAV:   7    -0.180406029829E+03   -0.39064E-06   -0.15988E-05  7584   0.198E-02    0.163E-02
DAV:   8    -0.180406029428E+03    0.40104E-06   -0.69743E-06  7152   0.130E-02    0.929E-03
DAV:   9    -0.180406029655E+03   -0.22777E-06   -0.24890E-06  7384   0.472E-03    0.444E-03
DAV:  10    -0.180406030250E+03   -0.59499E-06   -0.81235E-07  6816   0.446E-03    0.199E-03
DAV:  11    -0.180406030899E+03   -0.64838E-06   -0.20362E-07  6528   0.233E-03    0.953E-04
DAV:  12    -0.180406031401E+03   -0.50255E-06   -0.53587E-08  5976   0.108E-03    0.112E-03
DAV:  13    -0.180406031831E+03   -0.43007E-06   -0.33676E-08  5224   0.534E-04    0.968E-04
DAV:  14    -0.180406032486E+03   -0.65449E-06   -0.29184E-08  4456   0.927E-04    0.740E-04
DAV:  15    -0.180406032839E+03   -0.35315E-06   -0.18218E-08  4576   0.408E-04    0.709E-04
DAV:  16    -0.180406033037E+03   -0.19806E-06   -0.61841E-09  4152   0.311E-04    0.677E-04
DAV:  17    -0.180406033185E+03   -0.14783E-06   -0.40027E-09  4168   0.224E-04    0.642E-04
DAV:  18    -0.180406033347E+03   -0.16220E-06   -0.62976E-09  4072   0.123E-04    0.639E-04
DAV:  19    -0.180406033432E+03   -0.84394E-07   -0.17594E-09  4200   0.122E-04    0.625E-04
DAV:  20    -0.180406033482E+03   -0.50823E-07   -0.10184E-09  4080   0.544E-05    0.612E-04
DAV:  21    -0.180406033507E+03   -0.24782E-07    0.14899E-11  4152   0.456E-05    0.609E-04
DAV:  22    -0.180406033531E+03   -0.24054E-07    0.25428E-10  4064   0.475E-05    0.607E-04
DAV:  23    -0.180406033555E+03   -0.24142E-07    0.37387E-10  4104   0.293E-05    0.607E-04
DAV:  24    -0.180406033569E+03   -0.13417E-07    0.51567E-10  3944   0.233E-05    0.606E-04
DAV:  25    -0.180406033574E+03   -0.47003E-08    0.59645E-10  3824   0.161E-05
  11 F= -.19083629E+03 E0= -.19083629E+03  d E =-.435983E-02
 trial-energy change:   -0.004360  1 .order   -0.004345   -0.005771   -0.002919
 step:   4.2371(harm=  4.3656)  dis= 0.02877  next Energy=  -190.837710 (dE=-0.578E-02)
 bond charge predicted
       N       E                     dE             d eps       ncg     rms          rms(c)
DAV:   1    -0.180401474598E+03    0.45590E-02   -0.28819E+00  6000   0.267E+00    0.420E-01
DAV:   2    -0.180405102938E+03   -0.36283E-02   -0.40662E-02  6792   0.364E-01    0.199E-01
DAV:   3    -0.180405063525E+03    0.39413E-04   -0.14903E-03  6752   0.137E-01    0.153E-01
DAV:   4    -0.180405013064E+03    0.50461E-04   -0.17508E-04  7688   0.956E-02    0.110E-01
DAV:   5    -0.180404987130E+03    0.25934E-04   -0.13249E-04  6704   0.297E-02    0.616E-02
DAV:   6    -0.180404991515E+03   -0.43849E-05   -0.80403E-05  6816   0.221E-02    0.239E-02
DAV:   7    -0.180404992149E+03   -0.63426E-06   -0.16742E-05  7480   0.185E-02    0.158E-02
DAV:   8    -0.180404991842E+03    0.30643E-06   -0.63077E-06  7160   0.122E-02    0.921E-03
DAV:   9    -0.180404991999E+03   -0.15681E-06   -0.21435E-06  7584   0.565E-03    0.461E-03
DAV:  10    -0.180404992599E+03   -0.59936E-06   -0.85486E-07  6640   0.390E-03    0.202E-03
DAV:  11    -0.180404993242E+03   -0.64351E-06   -0.22631E-07  6520   0.231E-03    0.954E-04
DAV:  12    -0.180404993701E+03   -0.45857E-06   -0.56628E-08  5784   0.115E-03    0.110E-03
DAV:  13    -0.180404994086E+03   -0.38481E-06   -0.30017E-08  5160   0.593E-04    0.967E-04
DAV:  14    -0.180404994753E+03   -0.66765E-06   -0.32298E-08  4560   0.934E-04    0.754E-04
DAV:  15    -0.180404995007E+03   -0.25387E-06   -0.13929E-08  4408   0.373E-04    0.687E-04
DAV:  16    -0.180404995211E+03   -0.20378E-06   -0.65002E-09  4120   0.288E-04    0.665E-04
DAV:  17    -0.180404995362E+03   -0.15079E-06   -0.50028E-09  4200   0.239E-04    0.627E-04
DAV:  18    -0.180404995493E+03   -0.13149E-06   -0.57601E-09  4064   0.131E-04    0.626E-04
DAV:  19    -0.180404995553E+03   -0.60289E-07   -0.14927E-09  4168   0.123E-04    0.611E-04
DAV:  20    -0.180404995588E+03   -0.34401E-07   -0.90257E-10  4088   0.524E-05    0.592E-04
DAV:  21    -0.180404995602E+03   -0.13693E-07    0.49765E-11  4152   0.523E-05    0.587E-04
DAV:  22    -0.180404995618E+03   -0.16902E-07    0.18232E-11  4000   0.422E-05    0.585E-04
DAV:  23    -0.180404995631E+03   -0.12296E-07    0.37891E-10  4136   0.302E-05    0.585E-04
DAV:  24    -0.180404995638E+03   -0.74069E-08    0.51859E-10  3960   0.221E-05
  12 F= -.19083777E+03 E0= -.19083777E+03  d E =-.584114E-02
 curvature:  -3.46 expect dE=-0.649E-02 dE for cont linesearch -0.247E-05
 trial: gam= 0.73640 g(F)=  0.188E-02 g(S)=  0.000E+00 ort = 0.551E-04 (trialstep = 0.257E+01)
 search vector abs. value=  0.426E-02
 bond charge predicted
       N       E                     dE             d eps       ncg     rms          rms(c)
DAV:   1    -0.180398988699E+03    0.60069E-02   -0.46661E+00  5976   0.345E+00    0.577E-01
DAV:   2    -0.180404716964E+03   -0.57283E-02   -0.64423E-02  6696   0.481E-01    0.246E-01
DAV:   3    -0.180404648598E+03    0.68366E-04   -0.27121E-03  6792   0.182E-01    0.190E-01
DAV:   4    -0.180404543082E+03    0.10552E-03   -0.41736E-04  7832   0.179E-01    0.128E-01
DAV:   5    -0.180404503332E+03    0.39750E-04   -0.24247E-04  7376   0.462E-02    0.655E-02
DAV:   6    -0.180404507958E+03   -0.46255E-05   -0.15832E-04  7064   0.320E-02    0.275E-02
DAV:   7    -0.180404509413E+03   -0.14552E-05   -0.41463E-05  7440   0.313E-02    0.211E-02
DAV:   8    -0.180404508822E+03    0.59094E-06   -0.66136E-06  7080   0.121E-02    0.137E-02
DAV:   9    -0.180404509118E+03   -0.29604E-06   -0.54250E-06  7480   0.124E-02    0.550E-03
DAV:  10    -0.180404510353E+03   -0.12355E-05   -0.26084E-06  6720   0.548E-03    0.273E-03
DAV:  11    -0.180404511018E+03   -0.66470E-06   -0.80561E-07  6760   0.376E-03    0.249E-03
DAV:  12    -0.180404511533E+03   -0.51464E-06   -0.11738E-07  5968   0.155E-03    0.172E-03
DAV:  13    -0.180404513239E+03   -0.17061E-05   -0.12434E-07  6072   0.266E-03    0.907E-04
DAV:  14    -0.180404513899E+03   -0.66037E-06   -0.94763E-08  6176   0.952E-04    0.693E-04
DAV:  15    -0.180404514439E+03   -0.53967E-06   -0.23888E-08  4632   0.442E-04    0.732E-04
DAV:  16    -0.180404515012E+03   -0.57287E-06   -0.18572E-08  4320   0.346E-04    0.627E-04
DAV:  17    -0.180404515506E+03   -0.49415E-06   -0.20452E-08  4472   0.342E-04    0.547E-04
DAV:  18    -0.180404515800E+03   -0.29420E-06   -0.13318E-08  4336   0.230E-04    0.539E-04
DAV:  19    -0.180404515927E+03   -0.12703E-06   -0.40500E-09  4280   0.144E-04    0.531E-04
DAV:  20    -0.180404516031E+03   -0.10396E-06   -0.32506E-09  4112   0.184E-04    0.511E-04
DAV:  21    -0.180404516092E+03   -0.60580E-07   -0.19181E-09  4232   0.122E-04    0.508E-04
DAV:  22    -0.180404516115E+03   -0.23698E-07    0.41922E-12  4216   0.812E-05    0.505E-04
DAV:  23    -0.180404516132E+03   -0.16938E-07    0.27183E-10  3992   0.306E-05    0.505E-04
DAV:  24    -0.180404516144E+03   -0.11947E-07    0.13587E-10  4080   0.433E-05    0.504E-04
DAV:  25    -0.180404516147E+03   -0.24738E-08    0.46237E-10  4040   0.244E-05
  13 F= -.19084041E+03 E0= -.19084041E+03  d E =-.264148E-02
 trial-energy change:   -0.002641  1 .order   -0.002649   -0.004920   -0.000378
 step:   2.7793(harm=  2.7793)  dis= 0.01889  next Energy=  -190.840437 (dE=-0.266E-02)
 bond charge predicted
       N       E                     dE             d eps       ncg     rms          rms(c)
DAV:   1    -0.180404234753E+03    0.28139E-03   -0.32283E-02  6008   0.287E-01    0.485E-02
DAV:   2    -0.180404274612E+03   -0.39859E-04   -0.44445E-04  6648   0.396E-02    0.202E-02
DAV:   3    -0.180404274328E+03    0.28369E-06   -0.18419E-05  6752   0.144E-02    0.157E-02
DAV:   4    -0.180404273646E+03    0.68219E-06   -0.28524E-06  7712   0.151E-02    0.106E-02
DAV:   5    -0.180404273357E+03    0.28883E-06   -0.16163E-06  7368   0.371E-03    0.545E-03
DAV:   6    -0.180404273363E+03   -0.52605E-08   -0.10021E-06  6664   0.259E-03    0.233E-03
DAV:   7    -0.180404273378E+03   -0.15229E-07   -0.31108E-07  7008   0.267E-03    0.184E-03
DAV:   8    -0.180404273365E+03    0.13097E-07   -0.47428E-08  5432   0.103E-03    0.126E-03
DAV:   9    -0.180404273346E+03    0.19099E-07   -0.48609E-08  5976   0.103E-03    0.674E-04
DAV:  10    -0.180404273349E+03   -0.38272E-08   -0.18248E-08  4544   0.473E-04
  14 F= -.19084043E+03 E0= -.19084043E+03  d E =-.265658E-02
 curvature:  -3.09 expect dE=-0.211E-02 dE for cont linesearch -0.156E-08
 trial: gam= 0.36889 g(F)=  0.683E-03 g(S)=  0.000E+00 ort =-0.147E-05 (trialstep = 0.261E+01)
 search vector abs. value=  0.126E-02
 bond charge predicted
       N       E                     dE             d eps       ncg     rms          rms(c)
DAV:   1    -0.180402214102E+03    0.20592E-02   -0.14109E+00  5976   0.196E+00    0.284E-01
DAV:   2    -0.180403970670E+03   -0.17566E-02   -0.19867E-02  6736   0.269E-01    0.135E-01
DAV:   3    -0.180403946506E+03    0.24163E-04   -0.72682E-04  6792   0.986E-02    0.102E-01
DAV:   4    -0.180403917154E+03    0.29352E-04   -0.11808E-04  7752   0.895E-02    0.718E-02
DAV:   5    -0.180403908695E+03    0.84588E-05   -0.77105E-05  6824   0.224E-02    0.358E-02
DAV:   6    -0.180403911185E+03   -0.24893E-05   -0.37498E-05  7432   0.157E-02    0.159E-02
DAV:   7    -0.180403910811E+03    0.37385E-06   -0.88362E-06  7560   0.180E-02    0.131E-02
DAV:   8    -0.180403910226E+03    0.58436E-06   -0.19525E-06  8472   0.668E-03    0.839E-03
DAV:   9    -0.180403909957E+03    0.26888E-06   -0.18978E-06  7640   0.103E-02    0.341E-03
DAV:  10    -0.180403910185E+03   -0.22769E-06   -0.12726E-06  6272   0.263E-03    0.200E-03
DAV:  11    -0.180403910244E+03   -0.59103E-07   -0.28386E-07  6664   0.385E-03    0.128E-03
DAV:  12    -0.180403910267E+03   -0.22425E-07   -0.38629E-08  5448   0.420E-04    0.106E-03
DAV:  13    -0.180403910332E+03   -0.65702E-07   -0.56569E-09  4136   0.900E-04    0.770E-04
DAV:  14    -0.180403910460E+03   -0.12740E-06   -0.17775E-08  4456   0.956E-04    0.613E-04
DAV:  15    -0.180403910513E+03   -0.53216E-07   -0.12241E-08  4400   0.575E-04    0.509E-04
DAV:  16    -0.180403910548E+03   -0.35056E-07   -0.35458E-09  4144   0.273E-04    0.515E-04
DAV:  17    -0.180403910584E+03   -0.35921E-07   -0.26786E-09  4160   0.284E-04    0.477E-04
DAV:  18    -0.180403910612E+03   -0.28267E-07   -0.21163E-09  4096   0.149E-04    0.479E-04
DAV:  19    -0.180403910617E+03   -0.49768E-08   -0.44812E-10  4144   0.982E-05
  15 F= -.19084152E+03 E0= -.19084152E+03  d E =-.108751E-02
 trial-energy change:   -0.001088  1 .order   -0.001094   -0.001781   -0.000406
 step:   3.4064(harm=  3.3789)  dis= 0.01231  next Energy=  -190.841578 (dE=-0.115E-02)
 reached required accuracy - stopping structural energy minimisation
 writing wavefunctions
