 vasp.6.4.0 14Feb23 (build Dec 31 2025 13:57:05) complex                        
  
 executed on             LinuxIFC date 2026.07.01  04:59:51
 running   24 mpi-ranks, with    1 threads/rank, on    1 nodes
 distrk:  each k-point on   24 cores,    1 groups
 distr:  one band on NCORE=  12 cores,    2 groups


--------------------------------------------------------------------------------------------------------


 INCAR:
   ISTART = 1            (Read existing wavefunction, if there)
   ISPIN = 1            (Non-Spin polarised DFT)
   LREAL = .FALSE.       (Projection operators: automatic)
   ENCUT = 500        (Cut-off energy for plane wave basis set, in eV)
   LWAVE = .TRUE.        (Write WAVECAR or not)
   LCHARG = .TRUE.        (Write CHGCAR or not)
   ADDGRID = .TRUE.        (Increase grid, helps GGA convergence)
   LASPH = .TRUE.        (Give more accurate total energies and band structure calculations)
   PREC = Accurate      (Accurate strictly avoids any aliasing or wrap around errors)
   LVTOT = .TRUE.      (Write total electrostatic potential into LOCPOT or not)
   LVHAR = .TRUE.      (Write ionic + Hartree electrostatic potential into LOCPOT or not)
   ISMEAR = 0            (gaussian smearing method)
   SIGMA = 0.05         (please check the width of the smearing)
   LORBIT = 11           (PAW radii for projected DOS)
   NEDOS = 2001         (DOSCAR points)
   NELM = 60           (Max electronic SCF steps)
   EDIFF = 1E-08        (SCF energy convergence, in eV)
   IVDW = 11           (DFT-D3 method of method with no damping)
   NPAR = 2
   KPAR = 1

 POTCAR:    PAW_PBE Cd 06Sep2000                  
 POTCAR:    PAW_PBE Cl 06Sep2000                  
 POTCAR:    PAW_PBE Zn 06Sep2000                  
 POTCAR:    PAW_PBE S 06Sep2000                   
 POTCAR:    PAW_PBE Cd 06Sep2000                  
   SHA256 =  8b7ca71966beae5276c8bb910adb3ecc013a3354c27473914c94cd54c83be4f7 Cd/POTCAR             
   COPYR  = (c) Copyright 06Sep2000 Georg Kresse                                                    
   COPYR  = This file is part of the software VASP. Any use, copying, and all other rights are regul
   COPYR  = If you do not have a valid VASP license, you may not use, copy or distribute this file. 
   VRHFIN =Cd : s2 d10                                                                              
   LEXCH  = PE                                                                                      
   EATOM  =  1293.1815 eV,   95.0462 Ry                                                             
                                                                                                    
   TITEL  = PAW_PBE Cd 06Sep2000                                                                    
   LULTRA =        F    use ultrasoft PP ?                                                          
   IUNSCR =        1    unscreen: 0-lin 1-nonlin 2-no                                               
   RPACOR =    2.000    partial core radius                                                         
   POMASS =  112.411; ZVAL   =   12.000    mass and valenz                                          
   RCORE  =    2.300    outmost cutoff radius                                                       
   RWIGS  =    2.980; RWIGS  =    1.577    wigner-seitz radius (au A)                               
   ENMAX  =  274.336; ENMIN  =  205.752 eV                                                          
   RCLOC  =    2.054    cutoff for local pot                                                        
   LCOR   =        T    correct aug charges                                                         
   LPAW   =        T    paw PP                                                                      
   EAUG   =  456.106                                                                                
   DEXC   =    0.000                                                                                
   RMAX   =    2.358    core radius for proj-oper                                                   
   RAUG   =    1.300    factor for augmentation sphere                                              
   RDEP   =    2.450    radius for radial grids                                                     
   RDEPT  =    1.955    core radius for aug-charge                                                  
                                                                                                    
   Atomic configuration                                                                             
   12 entries                                                                                       
     n  l   j            E        occ.                                                              
     1  0  0.50    -26519.7817   2.0000                                                             
     2  0  0.50     -3936.9612   2.0000                                                             
     2  1  1.50     -3532.2230   6.0000                                                             
     3  0  0.50      -733.7908   2.0000                                                             
     3  1  1.50      -601.0792   6.0000                                                             
     3  2  2.50      -393.5307  10.0000                                                             
     4  0  0.50      -105.8977   2.0000                                                             
     4  1  1.50       -66.9488   6.0000                                                             
     4  2  2.50       -11.7331  10.0000                                                             
     5  0  0.50        -5.6592   2.0000                                                             
     5  1  0.50        -1.3606   0.0000                                                             
     4  3  2.50        -1.3606   0.0000                                                             
   Description                                                                                      
     l       E           TYP  RCUT    TYP  RCUT                                                     
     2    -11.7331479     23  2.300                                                                 
     2    -13.0937305     23  2.300                                                                 
     0     -5.6591502     23  2.300                                                                 
     0     -1.5561433     23  2.300                                                                 
     1     -2.7211652     23  2.300                                                                 
     1      8.3548275     23  2.300                                                                 
  local pseudopotential read in
  partial core-charges read in
  partial kinetic energy density read in
  atomic valenz-charges read in
  non local Contribution for L=           2  read in
    real space projection operators read in
  non local Contribution for L=           2  read in
    real space projection operators read in
  non local Contribution for L=           0  read in
    real space projection operators read in
  non local Contribution for L=           0  read in
    real space projection operators read in
  non local Contribution for L=           1  read in
    real space projection operators read in
  non local Contribution for L=           1  read in
    real space projection operators read in
    PAW grid and wavefunctions read in
 
   number of l-projection  operators is LMAX  =           6
   number of lm-projection operators is LMMAX =          18
 
 POTCAR:    PAW_PBE Cl 06Sep2000                  
   SHA256 =  9f1b6e6ed4247ac726a768b330d26d7667cc3c95a39ff49c1d064c2d9dcce931 Cl/POTCAR             
   COPYR  = (c) Copyright 06Sep2000 Georg Kresse                                                    
   COPYR  = This file is part of the software VASP. Any use, copying, and all other rights are regul
   COPYR  = If you do not have a valid VASP license, you may not use, copy or distribute this file. 
   VRHFIN =Cl: s2p5                                                                                 
   LEXCH  = PE                                                                                      
   EATOM  =   409.7259 eV,   30.1140 Ry                                                             
                                                                                                    
   TITEL  = PAW_PBE Cl 06Sep2000                                                                    
   LULTRA =        F    use ultrasoft PP ?                                                          
   IUNSCR =        1    unscreen: 0-lin 1-nonlin 2-no                                               
   RPACOR =    1.500    partial core radius                                                         
   POMASS =   35.453; ZVAL   =    7.000    mass and valenz                                          
   RCORE  =    1.900    outmost cutoff radius                                                       
   RWIGS  =    2.100; RWIGS  =    1.111    wigner-seitz radius (au A)                               
   ENMAX  =  262.472; ENMIN  =  196.854 eV                                                          
   ICORE  =        2    local potential                                                             
   LCOR   =        T    correct aug charges                                                         
   LPAW   =        T    paw PP                                                                      
   EAUG   =  356.192                                                                                
   DEXC   =    0.000                                                                                
   RMAX   =    1.945    core radius for proj-oper                                                   
   RAUG   =    1.300    factor for augmentation sphere                                              
   RDEP   =    2.020    radius for radial grids                                                     
   RDEPT  =    1.678    core radius for aug-charge                                                  
                                                                                                    
   Atomic configuration                                                                             
    6 entries                                                                                       
     n  l   j            E        occ.                                                              
     1  0  0.50     -2751.1850   2.0000                                                             
     2  0  0.50      -252.6861   2.0000                                                             
     2  1  1.50      -191.6157   6.0000                                                             
     3  0  0.50       -20.6916   2.0000                                                             
     3  1  0.50        -8.5949   5.0000                                                             
     3  2  1.50        -8.1635   0.0000                                                             
   Description                                                                                      
     l       E           TYP  RCUT    TYP  RCUT                                                     
     0    -20.6915656     23  1.900                                                                 
     0    -22.0521482     23  1.900                                                                 
     1     -8.5948577     23  1.900                                                                 
     1     -5.3847331     23  1.900                                                                 
     2     -8.1634956     23  1.900                                                                 
  local pseudopotential read in
  partial core-charges read in
  partial kinetic energy density read in
  atomic valenz-charges read in
  non local Contribution for L=           0  read in
    real space projection operators read in
  non local Contribution for L=           0  read in
    real space projection operators read in
  non local Contribution for L=           1  read in
    real space projection operators read in
  non local Contribution for L=           1  read in
    real space projection operators read in
    PAW grid and wavefunctions read in
 
   number of l-projection  operators is LMAX  =           4
   number of lm-projection operators is LMMAX =           8
 
 POTCAR:    PAW_PBE Zn 06Sep2000                  
   SHA256 =  501fddbd8274dd8e9725d4f3de27861d7f1e553a7e18441bc79fed8f346e7f23 Zn/POTCAR             
   COPYR  = (c) Copyright 06Sep2000 Georg Kresse                                                    
   COPYR  = This file is part of the software VASP. Any use, copying, and all other rights are regul
   COPYR  = If you do not have a valid VASP license, you may not use, copy or distribute this file. 
   VRHFIN =Zn: d10 p2                                                                               
   LEXCH  = PE                                                                                      
   EATOM  =  1748.8345 eV,  128.5357 Ry                                                             
                                                                                                    
   TITEL  = PAW_PBE Zn 06Sep2000                                                                    
   LULTRA =        F    use ultrasoft PP ?                                                          
   IUNSCR =        1    unscreen: 0-lin 1-nonlin 2-no                                               
   RPACOR =    2.000    partial core radius                                                         
   POMASS =   65.390; ZVAL   =   12.000    mass and valenz                                          
   RCORE  =    2.300    outmost cutoff radius                                                       
   RWIGS  =    2.400; RWIGS  =    1.270    wigner-seitz radius (au A)                               
   ENMAX  =  276.723; ENMIN  =  207.542 eV                                                          
   RCLOC  =    1.828    cutoff for local pot                                                        
   LCOR   =        T    correct aug charges                                                         
   LPAW   =        T    paw PP                                                                      
   EAUG   =  575.892                                                                                
   DEXC   =    0.000                                                                                
   RMAX   =    2.347    core radius for proj-oper                                                   
   RAUG   =    1.300    factor for augmentation sphere                                              
   RDEP   =    2.324    radius for radial grids                                                     
   RDEPT  =    1.788    core radius for aug-charge                                                  
                                                                                                    
   Atomic configuration                                                                             
    9 entries                                                                                       
     n  l   j            E        occ.                                                              
     1  0  0.50     -9524.6913   2.0000                                                             
     2  0  0.50     -1158.1882   2.0000                                                             
     2  1  1.50     -1003.8506   6.0000                                                             
     3  0  0.50      -129.2194   2.0000                                                             
     3  1  1.50       -83.3890   6.0000                                                             
     3  2  2.50       -10.1410  10.0000                                                             
     4  0  0.50        -5.9785   2.0000                                                             
     4  1  0.50        -4.0817   0.0000                                                             
     4  3  2.50        -1.3606   0.0000                                                             
   Description                                                                                      
     l       E           TYP  RCUT    TYP  RCUT                                                     
     2    -10.1410010     23  2.300                                                                 
     2    -11.5015836     23  2.300                                                                 
     0     -5.9785163     23  2.300                                                                 
     0      1.1858015     23  2.300                                                                 
     1     -2.7211652     23  2.300                                                                 
     1     13.2444212     23  2.300                                                                 
  local pseudopotential read in
  partial core-charges read in
  partial kinetic energy density read in
  atomic valenz-charges read in
  non local Contribution for L=           2  read in
    real space projection operators read in
  non local Contribution for L=           2  read in
    real space projection operators read in
  non local Contribution for L=           0  read in
    real space projection operators read in
  non local Contribution for L=           0  read in
    real space projection operators read in
  non local Contribution for L=           1  read in
    real space projection operators read in
  non local Contribution for L=           1  read in
    real space projection operators read in
    PAW grid and wavefunctions read in
 
   number of l-projection  operators is LMAX  =           6
   number of lm-projection operators is LMMAX =          18
 
 POTCAR:    PAW_PBE S 06Sep2000                   
   SHA256 =  0fc7481fb0695f01bdc6462160264c5c84044ae9ec85a907d398b887a2bc3132 S/POTCAR              
   COPYR  = (c) Copyright 06Sep2000 Georg Kresse                                                    
   COPYR  = This file is part of the software VASP. Any use, copying, and all other rights are regul
   COPYR  = If you do not have a valid VASP license, you may not use, copy or distribute this file. 
   VRHFIN =S : s2p4                                                                                 
   LEXCH  = PE                                                                                      
   EATOM  =   276.8230 eV,   20.3459 Ry                                                             
                                                                                                    
   TITEL  = PAW_PBE S 06Sep2000                                                                     
   LULTRA =        F    use ultrasoft PP ?                                                          
   IUNSCR =        1    unscreen: 0-lin 1-nonlin 2-no                                               
   RPACOR =    1.500    partial core radius                                                         
   POMASS =   32.066; ZVAL   =    6.000    mass and valenz                                          
   RCORE  =    1.900    outmost cutoff radius                                                       
   RWIGS  =    2.200; RWIGS  =    1.164    wigner-seitz radius (au A)                               
   ENMAX  =  258.689; ENMIN  =  194.016 eV                                                          
   ICORE  =        2    local potential                                                             
   LCOR   =        T    correct aug charges                                                         
   LPAW   =        T    paw PP                                                                      
   EAUG   =  335.092                                                                                
   DEXC   =    0.000                                                                                
   RMAX   =    1.942    core radius for proj-oper                                                   
   RAUG   =    1.300    factor for augmentation sphere                                              
   RDEP   =    1.954    radius for radial grids                                                     
   RDEPT  =    1.744    core radius for aug-charge                                                  
                                                                                                    
   Atomic configuration                                                                             
    6 entries                                                                                       
     n  l   j            E        occ.                                                              
     1  0  0.50     -2405.8406   2.0000                                                             
     2  0  0.50      -211.7007   2.0000                                                             
     2  1  1.50      -156.4958   6.0000                                                             
     3  0  0.50       -17.2562   2.0000                                                             
     3  1  0.50        -7.0085   4.0000                                                             
     3  2  1.50        -6.8029   0.0000                                                             
   Description                                                                                      
     l       E           TYP  RCUT    TYP  RCUT                                                     
     0    -17.2561641     23  1.900                                                                 
     0    -15.8743224     23  1.900                                                                 
     1     -7.0085400     23  1.900                                                                 
     1     -2.7779785     23  1.900                                                                 
     2     -6.8029130     23  1.900                                                                 
  local pseudopotential read in
  partial core-charges read in
  partial kinetic energy density read in
  atomic valenz-charges read in
  non local Contribution for L=           0  read in
    real space projection operators read in
  non local Contribution for L=           0  read in
    real space projection operators read in
  non local Contribution for L=           1  read in
    real space projection operators read in
  non local Contribution for L=           1  read in
    real space projection operators read in
    PAW grid and wavefunctions read in
 
   number of l-projection  operators is LMAX  =           4
   number of lm-projection operators is LMMAX =           8
 
 -----------------------------------------------------------------------------
|                                                                             |
|               ----> ADVICE to this user running VASP <----                  |
|                                                                             |
|     You have a (more or less) 'large supercell' and for larger cells it     |
|     might be more efficient to use real-space projection operators.         |
|     Therefore, try LREAL= Auto in the INCAR file.                           |
|     Mind: For very accurate calculation, you might also keep the            |
|     reciprocal projection scheme (i.e. LREAL=.FALSE.).                      |
|                                                                             |
 -----------------------------------------------------------------------------

  PAW_PBE Cd 06Sep2000                  :
 energy of atom  1       EATOM=-1293.1815
 kinetic energy error for atom=    0.0063 (will be added to EATOM!!)
  PAW_PBE Cl 06Sep2000                  :
 energy of atom  2       EATOM= -409.7259
 kinetic energy error for atom=    0.0030 (will be added to EATOM!!)
  PAW_PBE Zn 06Sep2000                  :
 energy of atom  3       EATOM=-1748.8345
 kinetic energy error for atom=    0.0029 (will be added to EATOM!!)
  PAW_PBE S 06Sep2000                   :
 energy of atom  4       EATOM= -276.8230
 kinetic energy error for atom=    0.0020 (will be added to EATOM!!)
 
 
 POSCAR: cif2pos.py
  positions in direct lattice
  velocities in cartesian coordinates
 exchange correlation table for  LEXCH =        8
   RHO(1)=    0.500       N(1)  =     2000
   RHO(2)=  100.500       N(2)  =     4000
 


--------------------------------------------------------------------------------------------------------


 ion  position               nearest neighbor table
   1  0.333  0.000  0.628-  21 2.66  24 2.66  22 2.66  10 2.67  12 2.67  13 2.67
   2  0.334  0.334  0.628-  23 2.65  19 2.67  22 2.67  10 2.67  14 2.67  11 2.67
   3  0.334  0.666  0.628-  23 2.65  20 2.67  24 2.67  12 2.67  15 2.67  11 2.67
   4  0.667  0.000  0.629-  24 2.66  27 2.66  25 2.67  15 2.67  16 2.67  13 2.67
   5  0.667  0.333  0.629-  22 2.66  26 2.66  25 2.67  14 2.67  17 2.67  13 2.67
   6  0.666  0.666  0.628-  23 2.65  26 2.67  27 2.67  18 2.67  15 2.67  14 2.67
   7  1.000  0.000  0.628-  21 2.66  27 2.66  19 2.66  10 2.67  18 2.67  16 2.67
   8  1.000  0.333  0.629-  19 2.66  20 2.66  25 2.67  11 2.67  17 2.67  16 2.67
   9  1.000  0.667  0.628-  21 2.66  26 2.66  20 2.66  12 2.67  18 2.67  17 2.67
  10  0.222  0.111  0.686-   7 2.67   1 2.67   2 2.67
  11  0.222  0.444  0.687-   8 2.67   2 2.67   3 2.67
  12  0.222  0.778  0.686-   9 2.67   1 2.67   3 2.67
  13  0.556  0.111  0.687-   4 2.67   5 2.67   1 2.67
  14  0.556  0.444  0.687-   5 2.67   2 2.67   6 2.67
  15  0.556  0.778  0.687-   4 2.67   3 2.67   6 2.67
  16  0.889  0.111  0.687-   4 2.67   8 2.67   7 2.67
  17  0.889  0.444  0.687-   5 2.67   8 2.67   9 2.67
  18  0.889  0.778  0.686-   9 2.67   7 2.67   6 2.67
  19  0.111  0.222  0.571-   7 2.66   8 2.66   2 2.67
  20  0.111  0.555  0.571-   9 2.66   8 2.66   3 2.67
  21  0.111  0.889  0.571-   1 2.66   7 2.66   9 2.66
  22  0.445  0.222  0.571-   1 2.66   5 2.66   2 2.67
  23  0.444  0.556  0.571-   6 2.65   3 2.65   2 2.65
  24  0.445  0.889  0.571-   1 2.66   4 2.66   3 2.67
  25  0.778  0.222  0.571-   8 2.67   5 2.67   4 2.67
  26  0.778  0.555  0.571-   9 2.66   5 2.66   6 2.67
  27  0.778  0.889  0.571-   7 2.66   4 2.66   6 2.67
  28  0.222  0.112  0.344-  58 2.31  55 2.31  57 2.32  46 2.59
  29  0.241  0.454  0.348-  56 2.35  55 2.35  47 2.56  41 2.59  38 3.03  37 3.03
  30  0.222  0.778  0.344-  59 2.31  56 2.31  57 2.32  48 2.59
  31  0.555  0.111  0.344-  60 2.32  58 2.36  59 2.36  49 2.57
  32  0.546  0.454  0.348-  61 2.35  58 2.35  50 2.56  41 2.59  44 3.03  40 3.03
  33  0.546  0.759  0.348-  62 2.35  59 2.35  51 2.56  41 2.59  42 3.03  45 3.03
  34  0.889  0.111  0.344-  60 2.32  55 2.36  62 2.36  52 2.57
  35  0.889  0.445  0.344-  60 2.32  56 2.36  61 2.36  53 2.57
  36  0.888  0.778  0.344-  62 2.31  61 2.31  57 2.32  54 2.59
  37  0.114  0.226  0.427-  46 2.31  47 2.32  52 2.32  55 2.59  29 3.03
  38  0.114  0.554  0.427-  48 2.31  47 2.32  53 2.32  56 2.59  29 3.03
  39  0.111  0.889  0.427-  54 2.31  48 2.31  46 2.31  57 2.63
  40  0.446  0.226  0.427-  46 2.31  50 2.32  49 2.32  58 2.59  32 3.03
  41  0.444  0.556  0.411-  47 2.38  50 2.38  51 2.38  29 2.59  33 2.59  32 2.59
  42  0.446  0.886  0.427-  48 2.31  51 2.32  49 2.32  59 2.59  33 3.03
  43  0.778  0.222  0.427-  49 2.30  52 2.30  53 2.30  60 2.65
  44  0.774  0.554  0.427-  54 2.31  50 2.32  53 2.32  61 2.59  32 3.03
  45  0.774  0.886  0.427-  54 2.31  51 2.32  52 2.32  62 2.59  33 3.03
  46  0.222  0.112  0.448-  39 2.31  40 2.31  37 2.31  28 2.59
  47  0.230  0.448  0.450-  38 2.32  37 2.32  41 2.38  29 2.56
  48  0.222  0.778  0.448-  39 2.31  42 2.31  38 2.31  30 2.59
  49  0.555  0.111  0.446-  43 2.30  40 2.32  42 2.32  31 2.57
  50  0.552  0.448  0.450-  44 2.32  40 2.32  41 2.38  32 2.56
  51  0.552  0.770  0.450-  45 2.32  42 2.32  41 2.38  33 2.56
  52  0.889  0.111  0.446-  43 2.30  37 2.32  45 2.32  34 2.57
  53  0.889  0.445  0.446-  43 2.30  44 2.32  38 2.32  35 2.57
  54  0.888  0.778  0.448-  39 2.31  45 2.31  44 2.31  36 2.59
  55  0.117  0.230  0.323-  28 2.31  29 2.35  34 2.36  37 2.59
  56  0.117  0.554  0.323-  30 2.31  29 2.35  35 2.36  38 2.59
  57  0.111  0.889  0.322-  36 2.32  30 2.32  28 2.32  39 2.63
  58  0.446  0.230  0.323-  28 2.31  32 2.35  31 2.36  40 2.59
  59  0.446  0.883  0.323-  30 2.31  33 2.35  31 2.36  42 2.59
  60  0.778  0.222  0.321-  31 2.32  34 2.32  35 2.32  43 2.65
  61  0.770  0.554  0.323-  36 2.31  32 2.35  35 2.36  44 2.59
  62  0.770  0.883  0.323-  36 2.31  33 2.35  34 2.36  45 2.59
 
  LATTYP: Found a hexagonal cell.
 ALAT       =    11.6564000000
 C/A-ratio  =     2.1447445180
  
  Lattice vectors:
  
 A1 = (  11.6564000000,   0.0000000000,   0.0000000000)
 A2 = (  -5.8282323800,  10.0948352900,   0.0000000000)
 A3 = (   0.0000000000,   0.0000000000,  25.0000000000)


Analysis of symmetry for initial positions (statically):
=====================================================================
 Subroutine PRICEL returns:
 Original cell was already a primitive cell.
 

 Routine SETGRP: Setting up the symmetry group for a 
 hexagonal supercell.


 Subroutine GETGRP returns: Found  6 space group operations
 (whereof  2 operations were pure point group operations)
 out of a pool of 24 trial point group operations.


The static configuration has the point symmetry C_1h.
 The point group associated with its full space group is C_3v.


Analysis of symmetry for dynamics (positions and initial velocities):
=====================================================================
 Subroutine PRICEL returns:
 Original cell was already a primitive cell.
 

 Routine SETGRP: Setting up the symmetry group for a 
 hexagonal supercell.


 Subroutine GETGRP returns: Found  6 space group operations
 (whereof  2 operations were pure point group operations)
 out of a pool of 24 trial point group operations.


The dynamic configuration has the point symmetry C_1h.
 The point group associated with its full space group is C_3v.


 Subroutine INISYM returns: Found  6 space group operations
 (whereof  2 operations are pure point group operations),
 and found     1 'primitive' translations


----------------------------------------------------------------------------------------

                                     Primitive cell                                     

  volume of cell :    2941.7360

  direct lattice vectors                    reciprocal lattice vectors
    11.656400000  0.000000000  0.000000000     0.085789781  0.049530553  0.000000000
    -5.828232380 10.094835290  0.000000000     0.000000000  0.099060556  0.000000000
     0.000000000  0.000000000 25.000000000     0.000000000  0.000000000  0.040000000

  length of vectors
    11.656400000 11.656499998 25.000000000     0.099061406  0.099060556  0.040000000

  position of ions in fractional coordinates (direct lattice)
     0.333365423  0.000016194  0.628486618
     0.333521736  0.333709698  0.628404212
     0.333521226  0.666478774  0.628404698
     0.666672358  0.000011181  0.628615554
     0.666672655  0.333327345  0.628615275
     0.666290302  0.666478264  0.628404212
     0.999984020  0.000015980  0.628486407
     0.999988819  0.333327642  0.628615554
     0.999983806  0.666634577  0.628486618
     0.222379423  0.111425439  0.686354586
     0.221918288  0.444292567  0.686596265
     0.222378868  0.777621132  0.686354820
     0.555582022  0.111124348  0.686535877
     0.555707744  0.444292256  0.686596011
     0.555707433  0.778081712  0.686596265
     0.888875912  0.111124088  0.686535927
     0.888875652  0.444417978  0.686535877
     0.888574561  0.777620577  0.686354586
     0.110799733  0.222164095  0.571039612
     0.110799537  0.555302300  0.571039805
     0.111111117  0.888888883  0.571140035
     0.444698215  0.222163858  0.571039559
     0.444444387  0.555555613  0.571405945
     0.444697700  0.889200463  0.571039805
     0.777778149  0.222221851  0.570975599
     0.777836142  0.555301785  0.571039559
     0.777835905  0.889200267  0.571039612
     0.222440128  0.111547080  0.344015829
     0.240891445  0.453779867  0.348089902
     0.222439574  0.777560426  0.344015670
     0.555342535  0.111004375  0.343678927
     0.546223074  0.453776926  0.348090475
     0.546220133  0.759108555  0.348089902
     0.888995655  0.111004345  0.343678740
     0.888995625  0.444657465  0.343678927
     0.888452920  0.777559872  0.344015829
     0.113700560  0.226169932  0.427151627
     0.113701822  0.554198151  0.427151805
     0.111110962  0.888889038  0.427163217
     0.445802739  0.226169471  0.427151925
     0.444444484  0.555555516  0.411478054
     0.445801849  0.886298178  0.427151805
     0.777778117  0.222221883  0.426651522
     0.773830529  0.554197261  0.427151925
     0.773830068  0.886299440  0.427151627
     0.222442244  0.111550720  0.447805865
     0.229707400  0.448186911  0.450330056
     0.222442017  0.777557983  0.447806048
     0.554839832  0.110752689  0.446340021
     0.551813309  0.448186691  0.450329683
     0.551813089  0.770292600  0.450330056
     0.889247138  0.110752862  0.446340185
     0.889247311  0.445160168  0.446340021
     0.888449280  0.777557756  0.447805865
     0.116921270  0.229521814  0.323494952
     0.116920935  0.554066795  0.323494998
     0.111110678  0.888889322  0.321799973
     0.445933608  0.229520680  0.323494777
     0.445933205  0.883079065  0.323494998
     0.777777822  0.222222178  0.320796175
     0.770479320  0.554066392  0.323494777
     0.770478186  0.883078730  0.323494952

  ion indices of the primitive-cell ions
   primitive index   ion index
                 1           1
                 2           2
                 3           3
                 4           4
                 5           5
                 6           6
                 7           7
                 8           8
                 9           9
                10          10
                11          11
                12          12
                13          13
                14          14
                15          15
                16          16
                17          17
                18          18
                19          19
                20          20
                21          21
                22          22
                23          23
                24          24
                25          25
                26          26
                27          27
                28          28
                29          29
                30          30
                31          31
                32          32
                33          33
                34          34
                35          35
                36          36
                37          37
                38          38
                39          39
                40          40
                41          41
                42          42
                43          43
                44          44
                45          45
                46          46
                47          47
                48          48
                49          49
                50          50
                51          51
                52          52
                53          53
                54          54
                55          55
                56          56
                57          57
                58          58
                59          59
                60          60
                61          61
                62          62

----------------------------------------------------------------------------------------

 
 
 KPOINTS: K-Spacing Value to Generate K-Mesh: 0.02

Automatic generation of k-mesh.
 Grid dimensions read from file:
 generate k-points for:    5    5    1

 Generating k-lattice:

  Cartesian coordinates                     Fractional coordinates (reciprocal lattice)
     0.017157956  0.009906111  0.000000000     0.200000000  0.000000000  0.000000000
     0.000000000  0.019812111  0.000000000     0.000000000  0.200000000  0.000000000
     0.000000000  0.000000000  0.040000000     0.000000000  0.000000000  1.000000000

  Length of vectors
     0.019812281  0.019812111  0.040000000

  Shift w.r.t. Gamma in fractional coordinates (k-lattice)
     0.000000000  0.000000000  0.000000000

 
 Subroutine IBZKPT returns following result:
 ===========================================
 
 Found      5 irreducible k-points:
 
 Following reciprocal coordinates:
            Coordinates               Weight
  0.000000  0.000000  0.000000      1.000000
  0.200000  0.000000  0.000000      6.000000
  0.400000  0.000000  0.000000      6.000000
  0.200000  0.200000  0.000000      6.000000
  0.400000  0.200000  0.000000      6.000000
 
 Following cartesian coordinates:
            Coordinates               Weight
  0.000000  0.000000  0.000000      1.000000
  0.017158  0.009906  0.000000      6.000000
  0.034316  0.019812  0.000000      6.000000
  0.017158  0.029718  0.000000      6.000000
  0.034316  0.039624  0.000000      6.000000
 


--------------------------------------------------------------------------------------------------------




 Dimension of arrays:
   k-points           NKPTS =      5   k-points in BZ     NKDIM =      5   number of bands    NBANDS=    332
   number of dos      NEDOS =   2001   number of ions     NIONS =     62
   non local maximal  LDIM  =      6   non local SUM 2l+1 LMDIM =     18
   total plane-waves  NPLWV = ******
   max r-space proj   IRMAX =      1   max aug-charges    IRDMAX= 179030
   dimension x,y,z NGX =    90 NGY =   90 NGZ =  192
   dimension x,y,z NGXF=   180 NGYF=  180 NGZF=  384
   support grid    NGXF=   360 NGYF=  360 NGZF=  768
   ions per type =               9  18  18  17
   NGX,Y,Z   is equivalent  to a cutoff of  12.84, 12.84, 12.77 a.u.
   NGXF,Y,Z  is equivalent  to a cutoff of  25.67, 25.67, 25.54 a.u.

 SYSTEM =  unknown system                          
 POSCAR =  cif2pos.py                              

 Startparameter for this run:
   NWRITE =      2    write-flag & timer
   PREC   = accura    normal or accurate (medium, high low for compatibility)
   ISTART =      0    job   : 0-new  1-cont  2-samecut
   ICHARG =      2    charge: 1-file 2-atom 10-const
   ISPIN  =      1    spin polarized calculation?
   LNONCOLLINEAR =      F non collinear calculations
   LSORBIT =      F    spin-orbit coupling
   INIWAV =      1    electr: 0-lowe 1-rand  2-diag
   LASPH  =      T    aspherical Exc in radial PAW
 Electronic Relaxation 1
   ENCUT  =  500.0 eV  36.75 Ry    6.06 a.u.  21.25 21.25 45.58*2*pi/ulx,y,z
   ENINI  =  500.0     initial cutoff
   ENAUG  =  575.9 eV  augmentation charge cutoff
   NELM   =     60;   NELMIN=  2; NELMDL=  0     # of ELM steps 
   EDIFF  = 0.1E-07   stopping-criterion for ELM
   LREAL  =      F    real-space projection
   NLSPLINE    = F    spline interpolate recip. space projectors
   LCOMPAT=      F    compatible to vasp.4.4
   GGA_COMPAT  = T    GGA compatible to vasp.4.4-vasp.4.6
   LMAXPAW     = -100 max onsite density
   LMAXMIX     =    2 max onsite mixed and CHGCAR
   VOSKOWN=      0    Vosko Wilk Nusair interpolation
   ROPT   =    0.00000   0.00000   0.00000   0.00000
 Ionic relaxation
   EDIFFG = 0.1E-06   stopping-criterion for IOM
   NSW    =      0    number of steps for IOM
   NBLOCK =      1;   KBLOCK =      1    inner block; outer block 
   IBRION =     -1    ionic relax: 0-MD 1-quasi-New 2-CG
   NFREE  =      0    steps in history (QN), initial steepest desc. (CG)
   ISIF   =      2    stress and relaxation
   IWAVPR =     10    prediction:  0-non 1-charg 2-wave 3-comb
   ISYM   =      2    0-nonsym 1-usesym 2-fastsym
   LCORR  =      T    Harris-Foulkes like correction to forces

   POTIM  = 0.5000    time-step for ionic-motion
   TEIN   =    0.0    initial temperature
   TEBEG  =    0.0;   TEEND  =   0.0 temperature during run
   SMASS  =  -3.00    Nose mass-parameter (am)
   estimated Nose-frequenzy (Omega)   =  0.10E-29 period in steps = 0.13E+47 mass=  -0.311E-26a.u.
   SCALEE = 1.0000    scale energy and forces
   NPACO  =    256;   APACO  = 10.0  distance and # of slots for P.C.
   PSTRESS=    0.0 pullay stress

  Mass of Ions in am
   POMASS = 112.41 35.45 65.39 32.07
  Ionic Valenz
   ZVAL   =  12.00  7.00 12.00  6.00
  Atomic Wigner-Seitz radii
   RWIGS  =  -1.00 -1.00 -1.00 -1.00
  virtual crystal weights 
   VCA    =   1.00  1.00  1.00  1.00
   NELECT =     552.0000    total number of electrons
   NUPDOWN=      -1.0000    fix difference up-down

 DOS related values:
   EMIN   =  10.00;   EMAX   =-10.00  energy-range for DOS
   EFERMI =   0.00;   METHOD = LEGACY      
   ISMEAR =     0;   SIGMA  =   0.05  broadening in eV -4-tet -1-fermi 0-gaus

 Electronic relaxation 2 (details)
   IALGO  =     38    algorithm
   LDIAG  =      T    sub-space diagonalisation (order eigenvalues)
   LSUBROT=      F    optimize rotation matrix (better conditioning)
   TURBO    =      0    0=normal 1=particle mesh
   IRESTART =      0    0=no restart 2=restart with 2 vectors
   NREBOOT  =      0    no. of reboots
   NMIN     =      0    reboot dimension
   EREF     =   0.00    reference energy to select bands
   IMIX   =      4    mixing-type and parameters
     AMIX     =   0.40;   BMIX     =  1.00
     AMIX_MAG =   1.60;   BMIX_MAG =  1.00
     AMIN     =   0.10
     WC   =   100.;   INIMIX=   1;  MIXPRE=   1;  MAXMIX= -45

 Intra band minimization:
   WEIMIN = 0.0000     energy-eigenvalue tresh-hold
   EBREAK =  0.75E-11  absolut break condition
   DEPER  =   0.30     relativ break condition  

   TIME   =   0.40     timestep for ELM

  volume/ion in A,a.u.               =      47.45       320.19
  Fermi-wavevector in a.u.,A,eV,Ry     =   0.937245  1.771137 11.951750  0.878429
  Thomas-Fermi vector in A             =   2.064337
 
 Write flags
   LWAVE        =      T    write WAVECAR
   LDOWNSAMPLE  =      F    k-point downsampling of WAVECAR
   LCHARG       =      T    write CHGCAR
   LVTOT        =      F    write LOCPOT, total local potential
   LVHAR        =      T    write LOCPOT, Hartree potential only
   LELF         =      F    write electronic localiz. function (ELF)
   LORBIT       =     11    0 simple, 1 ext, 2 COOP (PROOUT), +10 PAW based schemes


 Dipole corrections
   LMONO  =      F    monopole corrections only (constant potential shift)
   LDIPOL =      F    correct potential (dipole corrections)
   IDIPOL =      0    1-x, 2-y, 3-z, 4-all directions 
   EPSILON=  1.0000000 bulk dielectric constant

 Exchange correlation treatment:
   GGA     =    --    GGA type
   LEXCH   =     8    internal setting for exchange type
   LIBXC   =     F    Libxc                    
   VOSKOWN =     0    Vosko Wilk Nusair interpolation
   LHFCALC =     F    Hartree Fock is set to
   LHFONE  =     F    Hartree Fock one center treatment
   AEXX    =    0.0000 exact exchange contribution

 Linear response parameters
   LEPSILON=     F    determine dielectric tensor
   LRPA    =     F    only Hartree local field effects (RPA)
   LNABLA  =     F    use nabla operator in PAW spheres
   LVEL    =     F    velocity operator in full k-point grid
   CSHIFT  =0.1000    complex shift for real part using Kramers Kronig
   OMEGAMAX=  -1.0    maximum frequency
   DEG_THRESHOLD= 0.2000000E-02 threshold for treating states as degnerate
   RTIME   =   -0.100 relaxation time in fs
  (WPLASMAI=    0.000 imaginary part of plasma frequency in eV, 0.658/RTIME)
   DFIELD  = 0.0000000 0.0000000 0.0000000 field for delta impulse in time
 
  Optional k-point grid parameters
   LKPOINTS_OPT  =     F    use optional k-point grid
   KPOINTS_OPT_MODE=     1    mode for optional k-point grid
 
 Orbital magnetization related:
   ORBITALMAG=     F  switch on orbital magnetization
   LCHIMAG   =     F  perturbation theory with respect to B field
   DQ        =  0.001000  dq finite difference perturbation B field
   LLRAUG    =     F  two centre corrections for induced B field
   LBONE     =     F  B-component reconstruction in AE one-centre
   LVGVCALC  =     T  calculate vGv susceptibility
   LVGVAPPL  =     F  apply vGv susceptibility instead of pGv for G=0

 Random number generation:
   RANDOM_GENERATOR = DEFAULT
   PCG_SEED         = not used


--------------------------------------------------------------------------------------------------------


 Static calculation
 charge density and potential will be updated during run
 non-spin polarized calculation
 Variant of blocked Davidson
 Davidson routine will perform the subspace rotation
 perform sub-space diagonalisation
    after iterative eigenvector-optimisation
 modified Broyden-mixing scheme, WC =      100.0
 initial mixing is a Kerker type mixing with AMIX =  0.4000 and BMIX =      1.0000
 Hartree-type preconditioning will be used
 using additional bands           56
 reciprocal scheme for non local part
 use partial core corrections
 calculate Harris-corrections to forces 
   (improved forces if not selfconsistent)
 use gradient corrections 
 use of overlap-Matrix (Vanderbilt PP)
 Gauss-broadening in eV      SIGMA  =   0.05


--------------------------------------------------------------------------------------------------------


  energy-cutoff  :      500.00
  volume of cell :     2941.74
      direct lattice vectors                 reciprocal lattice vectors
    11.656400000  0.000000000  0.000000000     0.085789781  0.049530553  0.000000000
    -5.828232380 10.094835290  0.000000000     0.000000000  0.099060556  0.000000000
     0.000000000  0.000000000 25.000000000     0.000000000  0.000000000  0.040000000

  length of vectors
    11.656400000 11.656499998 25.000000000     0.099061406  0.099060556  0.040000000


 
 k-points in units of 2pi/SCALE and weight: K-Spacing Value to Generate K-Mesh: 0.02
   0.00000000  0.00000000  0.00000000       0.040
   0.01715796  0.00990611  0.00000000       0.240
   0.03431591  0.01981222  0.00000000       0.240
   0.01715796  0.02971822  0.00000000       0.240
   0.03431591  0.03962433  0.00000000       0.240
 
 k-points in reciprocal lattice and weights: K-Spacing Value to Generate K-Mesh: 0.02
   0.00000000  0.00000000  0.00000000       0.040
   0.20000000  0.00000000  0.00000000       0.240
   0.40000000  0.00000000  0.00000000       0.240
   0.20000000  0.20000000  0.00000000       0.240
   0.40000000  0.20000000  0.00000000       0.240
 
 position of ions in fractional coordinates (direct lattice) 
   0.33336542  0.00001619  0.62848662
   0.33352174  0.33370970  0.62840421
   0.33352123  0.66647877  0.62840470
   0.66667236  0.00001118  0.62861555
   0.66667266  0.33332734  0.62861528
   0.66629030  0.66647826  0.62840421
   0.99998402  0.00001598  0.62848641
   0.99998882  0.33332764  0.62861555
   0.99998381  0.66663458  0.62848662
   0.22237942  0.11142544  0.68635459
   0.22191829  0.44429257  0.68659626
   0.22237887  0.77762113  0.68635482
   0.55558202  0.11112435  0.68653588
   0.55570774  0.44429226  0.68659601
   0.55570743  0.77808171  0.68659626
   0.88887591  0.11112409  0.68653593
   0.88887565  0.44441798  0.68653588
   0.88857456  0.77762058  0.68635459
   0.11079973  0.22216409  0.57103961
   0.11079954  0.55530230  0.57103980
   0.11111112  0.88888888  0.57114003
   0.44469822  0.22216386  0.57103956
   0.44444439  0.55555561  0.57140595
   0.44469770  0.88920046  0.57103980
   0.77777815  0.22222185  0.57097560
   0.77783614  0.55530178  0.57103956
   0.77783591  0.88920027  0.57103961
   0.22244013  0.11154708  0.34401583
   0.24089145  0.45377987  0.34808990
   0.22243957  0.77756043  0.34401567
   0.55534254  0.11100438  0.34367893
   0.54622307  0.45377693  0.34809048
   0.54622013  0.75910855  0.34808990
   0.88899565  0.11100435  0.34367874
   0.88899562  0.44465746  0.34367893
   0.88845292  0.77755987  0.34401583
   0.11370056  0.22616993  0.42715163
   0.11370182  0.55419815  0.42715180
   0.11111096  0.88888904  0.42716322
   0.44580274  0.22616947  0.42715192
   0.44444448  0.55555552  0.41147805
   0.44580185  0.88629818  0.42715180
   0.77777812  0.22222188  0.42665152
   0.77383053  0.55419726  0.42715192
   0.77383007  0.88629944  0.42715163
   0.22244224  0.11155072  0.44780586
   0.22970740  0.44818691  0.45033006
   0.22244202  0.77755798  0.44780605
   0.55483983  0.11075269  0.44634002
   0.55181331  0.44818669  0.45032968
   0.55181309  0.77029260  0.45033006
   0.88924714  0.11075286  0.44634018
   0.88924731  0.44516017  0.44634002
   0.88844928  0.77755776  0.44780586
   0.11692127  0.22952181  0.32349495
   0.11692094  0.55406679  0.32349500
   0.11111068  0.88888932  0.32179997
   0.44593361  0.22952068  0.32349478
   0.44593321  0.88307906  0.32349500
   0.77777782  0.22222218  0.32079617
   0.77047932  0.55406639  0.32349478
   0.77047819  0.88307873  0.32349495
 
 position of ions in cartesian coordinates  (Angst):
   3.88574633  0.00016348 15.71216544
   1.94272510  3.36874443 15.71010531
   0.00326365  6.72799345 15.71011745
   7.77093451  0.00011287 15.71538884
   5.82829392  3.36488464 15.71538188
   3.88215608  6.72798830 15.71010531
  11.65612060  0.00016131 15.71216018
   9.71355871  3.36488764 15.71538884
   7.77091001  6.72956625 15.71216544
   1.94273015  1.12482145 17.15886465
  -0.00267199  4.48506028 17.16490662
  -1.94001962  7.84995724 17.15887050
   5.82842776  1.12178199 17.16339693
   3.88811324  4.48505714 17.16490027
   1.94270710  7.85460672 17.16490662
   9.71343617  1.12177937 17.16339818
   7.77091890  4.48632629 17.16339693
   5.82542709  7.84995165 17.15886465
  -0.00329796  2.24270994 14.27599029
  -1.94490712  5.60568525 14.27599512
  -3.88549535  8.97318687 14.27850087
   3.88875769  2.24270755 14.27598896
   1.94271435  5.60824240 14.28514863
   0.00110734  8.97633222 14.27599512
   7.77093264  2.24329298 14.27438997
   5.83034137  5.60568005 14.27598896
   3.88430066  8.97633023 14.27599029
   1.94272880  1.12604940  8.60039571
   0.16319253  4.58083301  8.70224756
  -1.93895821  7.84934443  8.60039174
   5.82633543  1.12057088  8.59197318
   3.72227727  4.58080332  8.70226189
   1.94269930  7.66307583  8.70224756
   9.71552983  1.12057058  8.59196850
   7.77092157  4.48874387  8.59197318
   5.82436299  7.84933884  8.60039571
   0.00716829  2.28314822 10.67879067
  -1.90464169  5.59453905 10.67879511
  -3.88549805  8.97318843 10.67908043
   3.87828681  2.28314355 10.67879812
   1.94271603  5.60824143 10.28695135
   0.03089294  8.94703412 10.67879511
   7.77093207  2.24329331 10.66628805
   5.79008776  5.59453007 10.67879812
   3.85451371  8.94704686 10.67879067
   1.94273225  1.12608614 11.19514661
   0.06542387  4.52437304 11.25825140
  -1.93891548  7.84931976 11.19515120
   5.82194261  1.11803015 11.15850053
   3.82002047  4.52437083 11.25824207
   1.94270982  7.77597692 11.25825140
   9.71992691  1.11803190 11.15850461
   7.77092545  4.49381857 11.15850053
   5.82433290  7.84931748 11.19514661
   0.02517463  2.31698491  8.08737381
  -1.86635285  5.59321303  8.08737496
  -3.88550302  8.97319130  8.04499933
   3.86028066  2.31697346  8.08736942
   0.05118581  8.91453771  8.08737496
   7.77092690  2.24329629  8.01990437
   5.75178747  5.59320896  8.08736942
   3.83421388  8.91453432  8.08737381
 


--------------------------------------------------------------------------------------------------------


 k-point   1 :   0.0000 0.0000 0.0000  plane waves:   74803
 k-point   2 :   0.2000 0.0000 0.0000  plane waves:   74695
 k-point   3 :   0.4000 0.0000 0.0000  plane waves:   74663
 k-point   4 :   0.2000 0.2000 0.0000  plane waves:   74689
 k-point   5 :   0.4000 0.2000 0.0000  plane waves:   74676

 maximum and minimum number of plane-waves per node :      6270     6199

 maximum number of plane-waves:     74803
 maximum index in each direction: 
   IXMAX=   21   IYMAX=   21   IZMAX=   45
   IXMIN=  -21   IYMIN=  -21   IZMIN=  -45


 parallel 3D FFT for wavefunctions:
    minimum data exchange during FFTs selected (reduces bandwidth)
 parallel 3D FFT for charge:
    minimum data exchange during FFTs selected (reduces bandwidth)


 total amount of memory used by VASP MPI-rank0   263262. kBytes
=======================================================================

   base      :      30000. kBytes
   nonl-proj :      24099. kBytes
   fftplans  :      79971. kBytes
   grid      :      45515. kBytes
   one-center:         93. kBytes
   wavefun   :      83584. kBytes
 
     INWAV:  cpu time      0.0000: real time      0.0000
 Broyden mixing: mesh for mixing (old mesh)
   NGX = 43   NGY = 43   NGZ = 91
  (NGX  =180   NGY  =180   NGZ  =384)
  gives a total of 168259 points

 initial charge density was supplied:
 charge density of overlapping atoms calculated
 number of electron     552.0000000 magnetization 
 keeping initial charge density in first step


--------------------------------------------------------------------------------------------------------


 Maximum index for augmentation-charges         7528 (set IRDMAX)


--------------------------------------------------------------------------------------------------------


 First call to EWALD:  gamma=   0.124
 Maximum number of real-space cells 4x 4x 2
 Maximum number of reciprocal cells 2x 2x 4

    FEWALD:  cpu time      0.0083: real time      0.0084


--------------------------------------- Ionic step        1  -------------------------------------------




--------------------------------------- Iteration      1(   1)  ---------------------------------------


    POTLOK:  cpu time      0.3101: real time      0.3116
    SETDIJ:  cpu time      0.4331: real time      0.4350
     EDDAV:  cpu time     29.4841: real time     29.6204
       DOS:  cpu time      0.0052: real time      0.0052
    --------------------------------------------
      LOOP:  cpu time     30.2326: real time     30.3722

 eigenvalue-minimisations  :  3336
 total energy-change (2. order) : 0.4557886E+04  (-0.2279665E+05)
 number of electron     552.0000000 magnetization 
 augmentation part      552.0000000 magnetization 

 Free energy of the ion-electron system (eV)
  ---------------------------------------------------
  alpha Z        PSCENC =       940.95539792
  Ewald energy   TEWEN  =    117018.25068026
  -Hartree energ DENC   =   -167674.47504865
  -exchange      EXHF   =         0.00000000
  -V(xc)+E(xc)   XCENC  =      1641.83795020
  PAW double counting   =     46516.48950506   -49356.44532682
  entropy T*S    EENTRO =        -0.02474367
  eigenvalues    EBANDS =       272.78291207
  atomic energy  EATOM  =     55198.51496693
  Solvation  Ediel_sol  =         0.00000000
  ---------------------------------------------------
  free energy    TOTEN  =      4557.88629330 eV

  energy without entropy =     4557.91103697  energy(sigma->0) =     4557.89866514


--------------------------------------------------------------------------------------------------------




--------------------------------------- Iteration      1(   2)  ---------------------------------------


     EDDAV:  cpu time     28.2306: real time     28.3634
       DOS:  cpu time      0.0049: real time      0.0049
    --------------------------------------------
      LOOP:  cpu time     28.2354: real time     28.3683

 eigenvalue-minimisations  :  3792
 total energy-change (2. order) :-0.4046348E+04  (-0.3861997E+04)
 number of electron     552.0000000 magnetization 
 augmentation part      552.0000000 magnetization 

 Free energy of the ion-electron system (eV)
  ---------------------------------------------------
  alpha Z        PSCENC =       940.95539792
  Ewald energy   TEWEN  =    117018.25068026
  -Hartree energ DENC   =   -167674.47504865
  -exchange      EXHF   =         0.00000000
  -V(xc)+E(xc)   XCENC  =      1641.83795020
  PAW double counting   =     46516.48950506   -49356.44532682
  entropy T*S    EENTRO =        -0.00000000
  eigenvalues    EBANDS =     -3773.58974682
  atomic energy  EATOM  =     55198.51496693
  Solvation  Ediel_sol  =         0.00000000
  ---------------------------------------------------
  free energy    TOTEN  =       511.53837808 eV

  energy without entropy =      511.53837808  energy(sigma->0) =      511.53837808


--------------------------------------------------------------------------------------------------------




--------------------------------------- Iteration      1(   3)  ---------------------------------------


     EDDAV:  cpu time     28.0641: real time     28.1996
       DOS:  cpu time      0.0037: real time      0.0037
    --------------------------------------------
      LOOP:  cpu time     28.0678: real time     28.2033

 eigenvalue-minimisations  :  3788
 total energy-change (2. order) :-0.6694722E+03  (-0.6637303E+03)
 number of electron     552.0000000 magnetization 
 augmentation part      552.0000000 magnetization 

 Free energy of the ion-electron system (eV)
  ---------------------------------------------------
  alpha Z        PSCENC =       940.95539792
  Ewald energy   TEWEN  =    117018.25068026
  -Hartree energ DENC   =   -167674.47504865
  -exchange      EXHF   =         0.00000000
  -V(xc)+E(xc)   XCENC  =      1641.83795020
  PAW double counting   =     46516.48950506   -49356.44532682
  entropy T*S    EENTRO =        -0.00000000
  eigenvalues    EBANDS =     -4443.06194392
  atomic energy  EATOM  =     55198.51496693
  Solvation  Ediel_sol  =         0.00000000
  ---------------------------------------------------
  free energy    TOTEN  =      -157.93381902 eV

  energy without entropy =     -157.93381902  energy(sigma->0) =     -157.93381902


--------------------------------------------------------------------------------------------------------




--------------------------------------- Iteration      1(   4)  ---------------------------------------


     EDDAV:  cpu time     28.0339: real time     28.1789
       DOS:  cpu time      0.0043: real time      0.0043
    --------------------------------------------
      LOOP:  cpu time     28.0382: real time     28.1832

 eigenvalue-minimisations  :  3776
 total energy-change (2. order) :-0.3593805E+02  (-0.3566592E+02)
 number of electron     552.0000000 magnetization 
 augmentation part      552.0000000 magnetization 

 Free energy of the ion-electron system (eV)
  ---------------------------------------------------
  alpha Z        PSCENC =       940.95539792
  Ewald energy   TEWEN  =    117018.25068026
  -Hartree energ DENC   =   -167674.47504865
  -exchange      EXHF   =         0.00000000
  -V(xc)+E(xc)   XCENC  =      1641.83795020
  PAW double counting   =     46516.48950506   -49356.44532682
  entropy T*S    EENTRO =        -0.00000000
  eigenvalues    EBANDS =     -4478.99999812
  atomic energy  EATOM  =     55198.51496693
  Solvation  Ediel_sol  =         0.00000000
  ---------------------------------------------------
  free energy    TOTEN  =      -193.87187322 eV

  energy without entropy =     -193.87187322  energy(sigma->0) =     -193.87187322


--------------------------------------------------------------------------------------------------------




--------------------------------------- Iteration      1(   5)  ---------------------------------------


     EDDAV:  cpu time     28.5709: real time     28.7245
       DOS:  cpu time      0.0045: real time      0.0045
    CHARGE:  cpu time      1.1152: real time      1.1212
    MIXING:  cpu time      0.0288: real time      0.0289
    --------------------------------------------
      LOOP:  cpu time     29.7194: real time     29.8792

 eigenvalue-minimisations  :  3880
 total energy-change (2. order) :-0.1050757E+01  (-0.1049373E+01)
 number of electron     552.0000012 magnetization 
 augmentation part      163.6838786 magnetization 

 Broyden mixing:
  rms(total) = 0.37082E+01    rms(broyden)= 0.37082E+01
  rms(prec ) = 0.37872E+01
  weight for this iteration     100.00

 Free energy of the ion-electron system (eV)
  ---------------------------------------------------
  alpha Z        PSCENC =       940.95539792
  Ewald energy   TEWEN  =    117018.25068026
  -Hartree energ DENC   =   -167674.47504865
  -exchange      EXHF   =         0.00000000
  -V(xc)+E(xc)   XCENC  =      1641.83795020
  PAW double counting   =     46516.48950506   -49356.44532682
  entropy T*S    EENTRO =        -0.00000000
  eigenvalues    EBANDS =     -4480.05075485
  atomic energy  EATOM  =     55198.51496693
  Solvation  Ediel_sol  =         0.00000000
  ---------------------------------------------------
  free energy    TOTEN  =      -194.92262995 eV

  energy without entropy =     -194.92262995  energy(sigma->0) =     -194.92262995


--------------------------------------------------------------------------------------------------------




--------------------------------------- Iteration      1(   6)  ---------------------------------------


    POTLOK:  cpu time      0.2769: real time      0.2783
    SETDIJ:  cpu time      0.3852: real time      0.3870
     EDDAV:  cpu time     32.8841: real time     33.0618
       DOS:  cpu time      0.0047: real time      0.0047
    CHARGE:  cpu time      1.1034: real time      1.1091
    MIXING:  cpu time      0.0196: real time      0.0197
    --------------------------------------------
      LOOP:  cpu time     34.6739: real time     34.8606

 eigenvalue-minimisations  :  4648
 total energy-change (2. order) : 0.1459450E+02  (-0.2789072E+01)
 number of electron     552.0000013 magnetization 
 augmentation part      166.1941515 magnetization 

 Broyden mixing:
  rms(total) = 0.29745E+01    rms(broyden)= 0.29745E+01
  rms(prec ) = 0.29897E+01
  weight for this iteration     100.00

 eigenvalues of (default mixing * dielectric matrix)
  average eigenvalue GAMMA=   2.2367
  2.2367

 Free energy of the ion-electron system (eV)
  ---------------------------------------------------
  alpha Z        PSCENC =       940.95539792
  Ewald energy   TEWEN  =    117018.25068026
  -Hartree energ DENC   =   -167507.53109295
  -exchange      EXHF   =         0.00000000
  -V(xc)+E(xc)   XCENC  =      1645.53863930
  PAW double counting   =     49752.16219342   -52535.71159383
  entropy T*S    EENTRO =        -0.00000000
  eigenvalues    EBANDS =     -4692.50732205
  atomic energy  EATOM  =     55198.51496693
  Solvation  Ediel_sol  =         0.00000000
  ---------------------------------------------------
  free energy    TOTEN  =      -180.32813100 eV

  energy without entropy =     -180.32813100  energy(sigma->0) =     -180.32813100


--------------------------------------------------------------------------------------------------------




--------------------------------------- Iteration      1(   7)  ---------------------------------------


    POTLOK:  cpu time      0.2602: real time      0.2616
    SETDIJ:  cpu time      0.3835: real time      0.3853
     EDDAV:  cpu time     27.2982: real time     27.4484
       DOS:  cpu time      0.0048: real time      0.0049
    CHARGE:  cpu time      1.1053: real time      1.1110
    MIXING:  cpu time      0.0175: real time      0.0176
    --------------------------------------------
      LOOP:  cpu time     29.0696: real time     29.2288

 eigenvalue-minimisations  :  3656
 total energy-change (2. order) :-0.8058529E+00  (-0.3666681E+01)
 number of electron     552.0000013 magnetization 
 augmentation part      166.8732268 magnetization 

 Broyden mixing:
  rms(total) = 0.11713E+01    rms(broyden)= 0.11713E+01
  rms(prec ) = 0.11870E+01
  weight for this iteration     100.00

 eigenvalues of (default mixing * dielectric matrix)
  average eigenvalue GAMMA=   1.7335
  1.0887  2.3783

 Free energy of the ion-electron system (eV)
  ---------------------------------------------------
  alpha Z        PSCENC =       940.95539792
  Ewald energy   TEWEN  =    117018.25068026
  -Hartree energ DENC   =   -167526.28222318
  -exchange      EXHF   =         0.00000000
  -V(xc)+E(xc)   XCENC  =      1654.21712040
  PAW double counting   =     55903.10453593   -58734.56323335
  entropy T*S    EENTRO =        -0.00000000
  eigenvalues    EBANDS =     -4635.33122879
  atomic energy  EATOM  =     55198.51496693
  Solvation  Ediel_sol  =         0.00000000
  ---------------------------------------------------
  free energy    TOTEN  =      -181.13398388 eV

  energy without entropy =     -181.13398388  energy(sigma->0) =     -181.13398388


--------------------------------------------------------------------------------------------------------




--------------------------------------- Iteration      1(   8)  ---------------------------------------


    POTLOK:  cpu time      0.2524: real time      0.2538
    SETDIJ:  cpu time      0.3843: real time      0.3861
     EDDAV:  cpu time     29.8821: real time     30.0393
       DOS:  cpu time      0.0044: real time      0.0044
    CHARGE:  cpu time      1.1047: real time      1.1099
    MIXING:  cpu time      0.0178: real time      0.0178
    --------------------------------------------
      LOOP:  cpu time     31.6457: real time     31.8113

 eigenvalue-minimisations  :  4112
 total energy-change (2. order) : 0.7753901E+00  (-0.4663985E+00)
 number of electron     552.0000013 magnetization 
 augmentation part      166.3111673 magnetization 

 Broyden mixing:
  rms(total) = 0.30330E+00    rms(broyden)= 0.30330E+00
  rms(prec ) = 0.30726E+00
  weight for this iteration     100.00

 eigenvalues of (default mixing * dielectric matrix)
  average eigenvalue GAMMA=   1.4870
  2.2923  1.0843  1.0843

 Free energy of the ion-electron system (eV)
  ---------------------------------------------------
  alpha Z        PSCENC =       940.95539792
  Ewald energy   TEWEN  =    117018.25068026
  -Hartree energ DENC   =   -167513.09920772
  -exchange      EXHF   =         0.00000000
  -V(xc)+E(xc)   XCENC  =      1651.73130118
  PAW double counting   =     57773.94781113   -60612.69837395
  entropy T*S    EENTRO =        -0.00000000
  eigenvalues    EBANDS =     -4637.96116951
  atomic energy  EATOM  =     55198.51496693
  Solvation  Ediel_sol  =         0.00000000
  ---------------------------------------------------
  free energy    TOTEN  =      -180.35859377 eV

  energy without entropy =     -180.35859377  energy(sigma->0) =     -180.35859377


--------------------------------------------------------------------------------------------------------




--------------------------------------- Iteration      1(   9)  ---------------------------------------


    POTLOK:  cpu time      0.2545: real time      0.2556
    SETDIJ:  cpu time      0.3840: real time      0.3854
     EDDAV:  cpu time     30.3181: real time     30.4532
       DOS:  cpu time      0.0047: real time      0.0047
    CHARGE:  cpu time      1.1054: real time      1.1100
    MIXING:  cpu time      0.0158: real time      0.0159
    --------------------------------------------
      LOOP:  cpu time     32.0824: real time     32.2247

 eigenvalue-minimisations  :  4184
 total energy-change (2. order) : 0.4384724E-02  (-0.5775939E-01)
 number of electron     552.0000013 magnetization 
 augmentation part      166.3265484 magnetization 

 Broyden mixing:
  rms(total) = 0.97964E-01    rms(broyden)= 0.97963E-01
  rms(prec ) = 0.10041E+00
  weight for this iteration     100.00

 eigenvalues of (default mixing * dielectric matrix)
  average eigenvalue GAMMA=   1.3921
  2.3135  1.1592  1.1592  0.9365

 Free energy of the ion-electron system (eV)
  ---------------------------------------------------
  alpha Z        PSCENC =       940.95539792
  Ewald energy   TEWEN  =    117018.25068026
  -Hartree energ DENC   =   -167490.56165976
  -exchange      EXHF   =         0.00000000
  -V(xc)+E(xc)   XCENC  =      1651.07425717
  PAW double counting   =     58049.09584972   -60881.62141867
  entropy T*S    EENTRO =        -0.00000000
  eigenvalues    EBANDS =     -4666.06228262
  atomic energy  EATOM  =     55198.51496693
  Solvation  Ediel_sol  =         0.00000000
  ---------------------------------------------------
  free energy    TOTEN  =      -180.35420905 eV

  energy without entropy =     -180.35420905  energy(sigma->0) =     -180.35420905


--------------------------------------------------------------------------------------------------------




--------------------------------------- Iteration      1(  10)  ---------------------------------------


    POTLOK:  cpu time      0.2475: real time      0.2486
    SETDIJ:  cpu time      0.3834: real time      0.3848
     EDDAV:  cpu time     28.9642: real time     29.0910
       DOS:  cpu time      0.0044: real time      0.0044
    CHARGE:  cpu time      1.1048: real time      1.1094
    MIXING:  cpu time      0.0168: real time      0.0169
    --------------------------------------------
      LOOP:  cpu time     30.7211: real time     30.8551

 eigenvalue-minimisations  :  3952
 total energy-change (2. order) :-0.5077549E-02  (-0.9194328E-02)
 number of electron     552.0000013 magnetization 
 augmentation part      166.3568150 magnetization 

 Broyden mixing:
  rms(total) = 0.68010E-01    rms(broyden)= 0.68009E-01
  rms(prec ) = 0.69420E-01
  weight for this iteration     100.00

 eigenvalues of (default mixing * dielectric matrix)
  average eigenvalue GAMMA=   1.2848
  2.1581  1.4156  1.0435  1.0435  0.7635

 Free energy of the ion-electron system (eV)
  ---------------------------------------------------
  alpha Z        PSCENC =       940.95539792
  Ewald energy   TEWEN  =    117018.25068026
  -Hartree energ DENC   =   -167482.68460283
  -exchange      EXHF   =         0.00000000
  -V(xc)+E(xc)   XCENC  =      1650.86257395
  PAW double counting   =     58130.57109510   -60961.19805524
  entropy T*S    EENTRO =        -0.00000000
  eigenvalues    EBANDS =     -4675.63134269
  atomic energy  EATOM  =     55198.51496693
  Solvation  Ediel_sol  =         0.00000000
  ---------------------------------------------------
  free energy    TOTEN  =      -180.35928660 eV

  energy without entropy =     -180.35928660  energy(sigma->0) =     -180.35928660


--------------------------------------------------------------------------------------------------------




--------------------------------------- Iteration      1(  11)  ---------------------------------------


    POTLOK:  cpu time      0.2476: real time      0.2487
    SETDIJ:  cpu time      0.3803: real time      0.3818
     EDDAV:  cpu time     29.5711: real time     29.7054
       DOS:  cpu time      0.0042: real time      0.0042
    CHARGE:  cpu time      1.1040: real time      1.1087
    MIXING:  cpu time      0.0195: real time      0.0196
    --------------------------------------------
      LOOP:  cpu time     31.3267: real time     31.4683

 eigenvalue-minimisations  :  4064
 total energy-change (2. order) :-0.2689497E-02  (-0.2315534E-02)
 number of electron     552.0000013 magnetization 
 augmentation part      166.3555892 magnetization 

 Broyden mixing:
  rms(total) = 0.49367E-01    rms(broyden)= 0.49367E-01
  rms(prec ) = 0.50718E-01
  weight for this iteration     100.00

 eigenvalues of (default mixing * dielectric matrix)
  average eigenvalue GAMMA=   1.3576
  2.0027  2.0027  1.2523  1.2523  0.9546  0.6811

 Free energy of the ion-electron system (eV)
  ---------------------------------------------------
  alpha Z        PSCENC =       940.95539792
  Ewald energy   TEWEN  =    117018.25068026
  -Hartree energ DENC   =   -167481.40421452
  -exchange      EXHF   =         0.00000000
  -V(xc)+E(xc)   XCENC  =      1650.80927493
  PAW double counting   =     58065.45185933   -60895.85587357
  entropy T*S    EENTRO =        -0.00000000
  eigenvalues    EBANDS =     -4677.08406737
  atomic energy  EATOM  =     55198.51496693
  Solvation  Ediel_sol  =         0.00000000
  ---------------------------------------------------
  free energy    TOTEN  =      -180.36197610 eV

  energy without entropy =     -180.36197610  energy(sigma->0) =     -180.36197610


--------------------------------------------------------------------------------------------------------




--------------------------------------- Iteration      1(  12)  ---------------------------------------


    POTLOK:  cpu time      0.2472: real time      0.2483
    SETDIJ:  cpu time      0.3817: real time      0.3832
     EDDAV:  cpu time     30.0722: real time     30.2084
       DOS:  cpu time      0.0044: real time      0.0044
    CHARGE:  cpu time      1.1067: real time      1.1116
    MIXING:  cpu time      0.0210: real time      0.0211
    --------------------------------------------
      LOOP:  cpu time     31.8332: real time     31.9770

 eigenvalue-minimisations  :  4144
 total energy-change (2. order) :-0.1843602E-02  (-0.5758737E-03)
 number of electron     552.0000013 magnetization 
 augmentation part      166.3523668 magnetization 

 Broyden mixing:
  rms(total) = 0.21986E-01    rms(broyden)= 0.21986E-01
  rms(prec ) = 0.23481E-01
  weight for this iteration     100.00

 eigenvalues of (default mixing * dielectric matrix)
  average eigenvalue GAMMA=   1.4448
  2.3827  2.3827  1.5849  1.1225  1.1225  0.8989  0.6194

 Free energy of the ion-electron system (eV)
  ---------------------------------------------------
  alpha Z        PSCENC =       940.95539792
  Ewald energy   TEWEN  =    117018.25068026
  -Hartree energ DENC   =   -167479.70690355
  -exchange      EXHF   =         0.00000000
  -V(xc)+E(xc)   XCENC  =      1650.83430186
  PAW double counting   =     58011.68492006   -60842.17786317
  entropy T*S    EENTRO =        -0.00000000
  eigenvalues    EBANDS =     -4678.71931999
  atomic energy  EATOM  =     55198.51496693
  Solvation  Ediel_sol  =         0.00000000
  ---------------------------------------------------
  free energy    TOTEN  =      -180.36381970 eV

  energy without entropy =     -180.36381970  energy(sigma->0) =     -180.36381970


--------------------------------------------------------------------------------------------------------




--------------------------------------- Iteration      1(  13)  ---------------------------------------


    POTLOK:  cpu time      0.2474: real time      0.2485
    SETDIJ:  cpu time      0.3822: real time      0.3837
     EDDAV:  cpu time     28.9475: real time     29.0764
       DOS:  cpu time      0.0046: real time      0.0047
    CHARGE:  cpu time      1.1032: real time      1.1078
    MIXING:  cpu time      0.0165: real time      0.0166
    --------------------------------------------
      LOOP:  cpu time     30.7015: real time     30.8376

 eigenvalue-minimisations  :  3952
 total energy-change (2. order) :-0.1297460E-02  (-0.4463286E-03)
 number of electron     552.0000013 magnetization 
 augmentation part      166.3533672 magnetization 

 Broyden mixing:
  rms(total) = 0.76211E-02    rms(broyden)= 0.76209E-02
  rms(prec ) = 0.87973E-02
  weight for this iteration     100.00

 eigenvalues of (default mixing * dielectric matrix)
  average eigenvalue GAMMA=   1.4075
  2.4694  2.2330  1.7931  1.0717  1.0717  0.9974  0.9974  0.6265

 Free energy of the ion-electron system (eV)
  ---------------------------------------------------
  alpha Z        PSCENC =       940.95539792
  Ewald energy   TEWEN  =    117018.25068026
  -Hartree energ DENC   =   -167476.72940253
  -exchange      EXHF   =         0.00000000
  -V(xc)+E(xc)   XCENC  =      1650.86949129
  PAW double counting   =     58032.15780643   -60862.65863616
  entropy T*S    EENTRO =        -0.00000000
  eigenvalues    EBANDS =     -4681.72542129
  atomic energy  EATOM  =     55198.51496693
  Solvation  Ediel_sol  =         0.00000000
  ---------------------------------------------------
  free energy    TOTEN  =      -180.36511716 eV

  energy without entropy =     -180.36511716  energy(sigma->0) =     -180.36511716


--------------------------------------------------------------------------------------------------------




--------------------------------------- Iteration      1(  14)  ---------------------------------------


    POTLOK:  cpu time      0.2468: real time      0.2478
    SETDIJ:  cpu time      0.3824: real time      0.3839
     EDDAV:  cpu time     28.2425: real time     28.3652
       DOS:  cpu time      0.0044: real time      0.0044
    CHARGE:  cpu time      1.1031: real time      1.1077
    MIXING:  cpu time      0.0209: real time      0.0210
    --------------------------------------------
      LOOP:  cpu time     30.0001: real time     30.1300

 eigenvalue-minimisations  :  3832
 total energy-change (2. order) :-0.7165243E-03  (-0.2123374E-03)
 number of electron     552.0000013 magnetization 
 augmentation part      166.3562333 magnetization 

 Broyden mixing:
  rms(total) = 0.70487E-02    rms(broyden)= 0.70485E-02
  rms(prec ) = 0.78590E-02
  weight for this iteration     100.00

 eigenvalues of (default mixing * dielectric matrix)
  average eigenvalue GAMMA=   1.3576
  2.7848  2.3115  1.6643  1.0835  1.0835  1.1771  1.0226  0.6271  0.4644

 Free energy of the ion-electron system (eV)
  ---------------------------------------------------
  alpha Z        PSCENC =       940.95539792
  Ewald energy   TEWEN  =    117018.25068026
  -Hartree energ DENC   =   -167475.58862161
  -exchange      EXHF   =         0.00000000
  -V(xc)+E(xc)   XCENC  =      1650.86256231
  PAW double counting   =     58029.29423606   -60859.72206321
  entropy T*S    EENTRO =        -0.00000000
  eigenvalues    EBANDS =     -4682.93299234
  atomic energy  EATOM  =     55198.51496693
  Solvation  Ediel_sol  =         0.00000000
  ---------------------------------------------------
  free energy    TOTEN  =      -180.36583368 eV

  energy without entropy =     -180.36583368  energy(sigma->0) =     -180.36583368


--------------------------------------------------------------------------------------------------------




--------------------------------------- Iteration      1(  15)  ---------------------------------------


    POTLOK:  cpu time      0.2467: real time      0.2478
    SETDIJ:  cpu time      0.3813: real time      0.3828
     EDDAV:  cpu time     29.5075: real time     29.6376
       DOS:  cpu time      0.0045: real time      0.0045
    CHARGE:  cpu time      1.1092: real time      1.1138
    MIXING:  cpu time      0.0194: real time      0.0195
    --------------------------------------------
      LOOP:  cpu time     31.2687: real time     31.4059

 eigenvalue-minimisations  :  4056
 total energy-change (2. order) :-0.4839840E-03  (-0.2090496E-04)
 number of electron     552.0000013 magnetization 
 augmentation part      166.3557693 magnetization 

 Broyden mixing:
  rms(total) = 0.34959E-02    rms(broyden)= 0.34956E-02
  rms(prec ) = 0.44263E-02
  weight for this iteration     100.00

 eigenvalues of (default mixing * dielectric matrix)
  average eigenvalue GAMMA=   1.4178
  3.3244  2.3391  1.6344  1.6344  1.1493  1.1493  0.8892  0.7046  0.7046  0.6485

 Free energy of the ion-electron system (eV)
  ---------------------------------------------------
  alpha Z        PSCENC =       940.95539792
  Ewald energy   TEWEN  =    117018.25068026
  -Hartree energ DENC   =   -167474.70307551
  -exchange      EXHF   =         0.00000000
  -V(xc)+E(xc)   XCENC  =      1650.85990864
  PAW double counting   =     58022.50394850   -60852.93701301
  entropy T*S    EENTRO =        -0.00000000
  eigenvalues    EBANDS =     -4683.81113140
  atomic energy  EATOM  =     55198.51496693
[...]
  augment   361.44428   361.46526   361.59547    -0.00336     0.00001    -0.00010
  Kinetic  6047.85059  6050.90977  6203.02193    -4.88548    -0.04338    -0.12910
  Fock        0.00000     0.00000     0.00000     0.00000     0.00000     0.00000
  vdW       -12.54085   -12.54099    -6.75498     0.00004    -0.00001    -0.00000
  -------------------------------------------------------------------------------------
  Total      -8.09255    -8.09271    -0.63209     0.00003     0.00000    -0.00000
  in kB      -4.40750    -4.40759    -0.34426     0.00001     0.00000    -0.00000
  external pressure =       -3.05 kB  Pullay stress =        0.00 kB


 VOLUME and BASIS-vectors are now :
 -----------------------------------------------------------------------------
  energy-cutoff  :      500.00
  volume of cell :     2941.74
      direct lattice vectors                 reciprocal lattice vectors
    11.656400000  0.000000000  0.000000000     0.085789781  0.049530553  0.000000000
    -5.828232380 10.094835290  0.000000000     0.000000000  0.099060556  0.000000000
     0.000000000  0.000000000 25.000000000     0.000000000  0.000000000  0.040000000

  length of vectors
    11.656400000 11.656499998 25.000000000     0.099061406  0.099060556  0.040000000


 FORCES acting on ions
    electron-ion (+dipol)            ewald-force                    non-local-force                 convergence-correction
 -----------------------------------------------------------------------------------------------
   0.125E+00 0.709E-01 -.151E+04   -.126E+00 -.725E-01 0.151E+04   0.213E-02 0.123E-02 -.685E-01   -.192E-05 -.107E-05 0.375E-05
   0.315E-03 0.839E+00 -.151E+04   -.401E-03 -.733E+00 0.151E+04   0.336E-06 -.105E+00 -.657E-01   0.140E-07 0.616E-05 0.549E-05
   0.729E+00 -.421E+00 -.151E+04   -.635E+00 0.366E+00 0.151E+04   -.907E-01 0.524E-01 -.657E-01   0.537E-05 -.310E-05 0.551E-05
   0.324E-03 -.809E+00 -.151E+04   0.506E-03 0.776E+00 0.151E+04   -.110E-06 0.342E-01 -.106E+00   0.283E-07 -.394E-05 0.653E-05
   -.701E+00 0.405E+00 -.151E+04   0.672E+00 -.388E+00 0.151E+04   0.296E-01 -.171E-01 -.106E+00   -.344E-05 0.198E-05 0.656E-05
   -.727E+00 -.420E+00 -.151E+04   0.635E+00 0.367E+00 0.151E+04   0.907E-01 0.524E-01 -.657E-01   -.533E-05 -.309E-05 0.549E-05
   -.124E+00 0.713E-01 -.151E+04   0.125E+00 -.724E-01 0.151E+04   -.213E-02 0.123E-02 -.685E-01   0.190E-05 -.110E-05 0.369E-05
   0.701E+00 0.404E+00 -.151E+04   -.672E+00 -.388E+00 0.151E+04   -.296E-01 -.171E-01 -.106E+00   0.343E-05 0.195E-05 0.653E-05
   0.110E-02 -.144E+00 -.151E+04   -.100E-03 0.145E+00 0.151E+04   0.788E-08 -.246E-02 -.685E-01   -.378E-07 0.220E-05 0.375E-05
   0.452E-03 0.161E+00 -.136E+04   -.147E-03 -.156E+00 0.136E+04   0.311E-07 -.969E-02 -.297E+01   0.918E-09 0.995E-06 -.910E-05
   -.372E+00 -.217E+00 -.136E+04   0.393E+00 0.227E+00 0.136E+04   -.213E-01 -.123E-01 -.297E+01   0.189E-05 0.107E-05 -.812E-05
   0.151E+00 -.885E-01 -.136E+04   -.137E+00 0.808E-01 0.136E+04   -.840E-02 0.485E-02 -.297E+01   0.854E-06 -.492E-06 -.908E-05
   0.371E+00 0.212E+00 -.136E+04   -.378E+00 -.217E+00 0.136E+04   0.667E-02 0.385E-02 -.298E+01   -.195E-06 -.962E-07 -.882E-05
   0.369E+00 -.214E+00 -.136E+04   -.391E+00 0.228E+00 0.136E+04   0.213E-01 -.123E-01 -.297E+01   -.187E-05 0.108E-05 -.812E-05
   0.106E-02 0.428E+00 -.136E+04   0.161E-02 -.451E+00 0.136E+04   -.788E-07 0.246E-01 -.297E+01   0.136E-07 -.217E-05 -.812E-05
   -.374E+00 0.215E+00 -.136E+04   0.380E+00 -.217E+00 0.136E+04   -.667E-02 0.385E-02 -.298E+01   0.192E-06 -.111E-06 -.885E-05
   0.766E-03 -.429E+00 -.136E+04   0.281E-03 0.439E+00 0.136E+04   0.247E-07 -.770E-02 -.298E+01   -.137E-07 0.218E-06 -.882E-05
   -.141E+00 -.830E-01 -.136E+04   0.137E+00 0.810E-01 0.136E+04   0.840E-02 0.485E-02 -.297E+01   -.861E-06 -.497E-06 -.910E-05
   0.445E+00 0.486E+00 -.410E+03   -.429E+00 -.482E+00 0.407E+03   -.176E-01 -.455E-02 0.307E+01   0.166E-05 0.117E-05 0.448E-05
   0.645E+00 0.142E+00 -.410E+03   -.631E+00 -.132E+00 0.407E+03   -.127E-01 -.130E-01 0.307E+01   0.187E-05 0.822E-06 0.450E-05
   0.104E-02 0.731E-03 -.411E+03   -.167E-03 -.163E-02 0.408E+03   -.434E-18 0.130E-17 0.309E+01   -.325E-07 0.176E-07 0.192E-05
   -.449E+00 0.489E+00 -.410E+03   0.427E+00 -.482E+00 0.407E+03   0.176E-01 -.455E-02 0.307E+01   -.168E-05 0.121E-05 0.451E-05
   0.299E-02 -.367E-03 -.403E+03   -.158E-02 -.849E-03 0.400E+03   0.217E-18 -.173E-17 0.334E+01   0.179E-07 -.107E-07 0.229E-05
   0.201E+00 -.628E+00 -.410E+03   -.203E+00 0.610E+00 0.407E+03   0.487E-02 0.175E-01 0.307E+01   0.220E-06 -.203E-05 0.450E-05
   -.542E-02 0.448E-02 -.408E+03   0.353E-04 -.176E-02 0.405E+03   -.867E-18 0.000E+00 0.306E+01   0.910E-08 -.515E-08 0.455E-05
   -.646E+00 0.147E+00 -.410E+03   0.630E+00 -.131E+00 0.407E+03   0.127E-01 -.130E-01 0.307E+01   -.188E-05 0.848E-06 0.451E-05
   -.197E+00 -.626E+00 -.410E+03   0.202E+00 0.610E+00 0.407E+03   -.487E-02 0.175E-01 0.307E+01   -.186E-06 -.203E-05 0.448E-05
   0.946E-03 0.260E+01 0.195E+04   -.193E-02 -.223E+01 -.195E+04   0.119E-05 -.371E+00 0.177E+01   -.462E-07 -.703E-05 -.427E-05
   -.324E+02 -.187E+02 0.199E+04   0.319E+02 0.184E+02 -.199E+04   0.527E+00 0.304E+00 0.298E+00   0.136E-04 0.782E-05 -.139E-04
   0.226E+01 -.130E+01 0.195E+04   -.193E+01 0.111E+01 -.195E+04   -.321E+00 0.186E+00 0.177E+01   -.609E-05 0.351E-05 -.428E-05
   0.112E+02 0.646E+01 0.196E+04   -.104E+02 -.598E+01 -.196E+04   -.826E+00 -.477E+00 0.123E+01   0.715E-05 0.409E-05 -.495E-05
   0.324E+02 -.187E+02 0.199E+04   -.319E+02 0.184E+02 -.199E+04   -.527E+00 0.304E+00 0.298E+00   -.136E-04 0.788E-05 -.139E-04
   -.793E-03 0.374E+02 0.199E+04   0.274E-02 -.368E+02 -.199E+04   0.195E-05 -.608E+00 0.298E+00   0.209E-07 -.157E-04 -.139E-04
   -.112E+02 0.646E+01 0.196E+04   0.104E+02 -.598E+01 -.196E+04   0.826E+00 -.477E+00 0.123E+01   -.710E-05 0.410E-05 -.493E-05
   -.508E-03 -.129E+02 0.196E+04   0.341E-03 0.119E+02 -.196E+04   -.306E-05 0.953E+00 0.123E+01   0.295E-07 -.825E-05 -.494E-05
   -.225E+01 -.130E+01 0.195E+04   0.192E+01 0.111E+01 -.195E+04   0.321E+00 0.186E+00 0.177E+01   0.606E-05 0.355E-05 -.427E-05
   0.156E+02 0.931E+01 0.308E+03   -.153E+02 -.909E+01 -.306E+03   -.277E+00 -.221E+00 -.154E+01   0.464E-05 -.470E-05 -.132E-04
   0.159E+02 0.885E+01 0.308E+03   -.155E+02 -.872E+01 -.306E+03   -.330E+00 -.130E+00 -.154E+01   -.171E-05 0.634E-05 -.132E-04
   -.547E-03 -.353E-02 0.308E+03   0.146E-02 0.466E-02 -.306E+03   -.173E-17 0.694E-17 -.184E+01   -.454E-07 0.274E-07 -.197E-04
   -.156E+02 0.931E+01 0.308E+03   0.153E+02 -.909E+01 -.306E+03   0.277E+00 -.221E+00 -.154E+01   -.468E-05 -.469E-05 -.132E-04
   -.487E-02 -.159E-02 0.556E+03   0.686E-02 0.199E-02 -.558E+03   0.260E-17 -.173E-17 0.230E+01   0.465E-08 0.720E-09 -.191E-04
   0.265E+00 -.182E+02 0.308E+03   -.212E+00 0.178E+02 -.306E+03   -.524E-01 0.351E+00 -.154E+01   -.635E-05 -.168E-05 -.132E-04
   -.174E-02 -.267E-02 0.315E+03   0.187E-02 0.428E-02 -.313E+03   0.000E+00 0.000E+00 -.181E+01   0.395E-07 -.172E-07 -.214E-04
   -.159E+02 0.885E+01 0.308E+03   0.155E+02 -.871E+01 -.306E+03   0.330E+00 -.130E+00 -.154E+01   0.172E-05 0.641E-05 -.132E-04
   -.267E+00 -.182E+02 0.308E+03   0.215E+00 0.178E+02 -.306E+03   0.524E-01 0.351E+00 -.154E+01   0.640E-05 -.166E-05 -.132E-04
   0.596E-03 0.451E+01 -.791E+02   -.200E-02 -.445E+01 0.831E+02   0.203E-06 -.633E-01 -.395E+01   -.296E-07 -.316E-05 -.489E-05
   -.102E+02 -.588E+01 -.118E+03   0.109E+02 0.630E+01 0.123E+03   -.717E+00 -.414E+00 -.502E+01   0.431E-05 0.247E-05 -.248E-05
   0.391E+01 -.225E+01 -.791E+02   -.386E+01 0.222E+01 0.831E+02   -.548E-01 0.316E-01 -.395E+01   -.274E-05 0.158E-05 -.491E-05
   0.343E+01 0.198E+01 -.667E+02   -.351E+01 -.203E+01 0.705E+02   0.900E-01 0.520E-01 -.376E+01   0.583E-06 0.328E-06 -.590E-05
   0.102E+02 -.588E+01 -.118E+03   -.109E+02 0.630E+01 0.123E+03   0.717E+00 -.414E+00 -.502E+01   -.432E-05 0.250E-05 -.246E-05
   -.693E-03 0.118E+02 -.118E+03   0.754E-03 -.126E+02 0.123E+03   -.266E-05 0.828E+00 -.502E+01   0.203E-07 -.497E-05 -.248E-05
   -.343E+01 0.198E+01 -.668E+02   0.351E+01 -.203E+01 0.705E+02   -.900E-01 0.520E-01 -.376E+01   -.554E-06 0.319E-06 -.590E-05
   -.334E-02 -.395E+01 -.667E+02   0.445E-03 0.405E+01 0.705E+02   0.333E-06 -.104E+00 -.376E+01   0.687E-08 -.669E-06 -.590E-05
   -.390E+01 -.225E+01 -.791E+02   0.385E+01 0.222E+01 0.831E+02   0.548E-01 0.316E-01 -.395E+01   0.272E-05 0.160E-05 -.489E-05
   0.105E+02 -.157E+02 0.120E+04   -.106E+02 0.156E+02 -.120E+04   0.469E-01 0.150E-01 0.373E+01   0.959E-06 0.162E-06 -.568E-05
   -.828E+01 0.170E+02 0.120E+04   0.825E+01 -.170E+02 -.120E+04   0.364E-01 0.331E-01 0.373E+01   0.639E-06 0.745E-06 -.569E-05
   0.422E-02 -.571E-02 0.120E+04   0.235E-03 0.379E-02 -.121E+04   -.173E-17 0.000E+00 0.395E+01   -.973E-08 0.583E-08 -.679E-06
   -.105E+02 -.157E+02 0.120E+04   0.106E+02 0.156E+02 -.120E+04   -.469E-01 0.150E-01 0.373E+01   -.980E-06 0.170E-06 -.569E-05
   -.188E+02 -.131E+01 0.120E+04   0.188E+02 0.136E+01 -.120E+04   -.105E-01 -.481E-01 0.373E+01   -.326E-06 -.925E-06 -.569E-05
   -.129E-02 -.261E-02 0.121E+04   0.172E-02 0.301E-02 -.121E+04   -.173E-16 0.000E+00 0.390E+01   0.171E-07 -.841E-08 -.135E-05
   0.828E+01 0.170E+02 0.120E+04   -.824E+01 -.170E+02 -.120E+04   -.364E-01 0.331E-01 0.373E+01   -.636E-06 0.766E-06 -.569E-05
   0.188E+02 -.130E+01 0.120E+04   -.188E+02 0.136E+01 -.120E+04   0.105E-01 -.481E-01 0.373E+01   0.341E-06 -.911E-06 -.568E-05
 -----------------------------------------------------------------------------------------------
   -.111E-03 0.115E-02 0.826E+01   0.220E-12 0.154E-12 0.364E-11   0.109E-15 -.139E-16 -.827E+01   -.632E-08 0.507E-08 -.280E-03
 
 
 POSITION                                       TOTAL-FORCE (eV/Angst)
 -----------------------------------------------------------------------------------
      3.88575      0.00016     15.71217         0.000433      0.000250      0.000228
      1.94273      3.36874     15.71011        -0.000000      0.000233      0.000599
      0.00326      6.72799     15.71012         0.000202     -0.000117      0.000599
      7.77093      0.00011     15.71539        -0.000000      0.000238      0.000632
      5.82829      3.36488     15.71538         0.000206     -0.000119      0.000632
      3.88216      6.72799     15.71011        -0.000202     -0.000117      0.000599
     11.65612      0.00016     15.71216        -0.000433      0.000250      0.000228
      9.71356      3.36489     15.71539        -0.000206     -0.000119      0.000632
      7.77091      6.72957     15.71217         0.000000     -0.000501      0.000228
      1.94273      1.12482     17.15886         0.000000     -0.001247      0.002334
     -0.00267      4.48506     17.16491        -0.000407     -0.000235      0.000596
     -1.94002      7.84996     17.15887        -0.001080      0.000623      0.002334
      5.82843      1.12178     17.16340        -0.000624     -0.000360      0.001847
      3.88811      4.48506     17.16490         0.000407     -0.000235      0.000596
      1.94271      7.85461     17.16491        -0.000000      0.000470      0.000596
      9.71344      1.12178     17.16340         0.000624     -0.000360      0.001847
      7.77092      4.48633     17.16340        -0.000000      0.000720      0.001847
      5.82543      7.84995     17.15886         0.001080      0.000623      0.002334
     -0.00330      2.24271     14.27599         0.000081      0.000899      0.000329
     -1.94491      5.60569     14.27600         0.000819     -0.000379      0.000329
     -3.88550      8.97319     14.27850        -0.000000      0.000000     -0.001469
      3.88876      2.24271     14.27599        -0.000081      0.000899      0.000329
      1.94271      5.60824     14.28515        -0.000000      0.000000     -0.000818
      0.00111      8.97633     14.27600         0.000738     -0.000519      0.000329
      7.77093      2.24329     14.27439         0.000000      0.000000      0.000841
      5.83034      5.60568     14.27599        -0.000819     -0.000379      0.000329
      3.88430      8.97633     14.27599        -0.000738     -0.000519      0.000329
      1.94273      1.12605      8.60040         0.000000     -0.002035      0.005492
      0.16319      4.58083      8.70225        -0.007909     -0.004567     -0.004195
     -1.93896      7.84934      8.60039        -0.001762      0.001017      0.005492
      5.82634      1.12057      8.59197         0.002033      0.001174     -0.003509
      3.72228      4.58080      8.70226         0.007910     -0.004567     -0.004195
      1.94270      7.66308      8.70225        -0.000000      0.009133     -0.004195
      9.71553      1.12057      8.59197        -0.002033      0.001174     -0.003509
      7.77092      4.48874      8.59197         0.000000     -0.002347     -0.003509
      5.82436      7.84934      8.60040         0.001762      0.001017      0.005492
      0.00717      2.28315     10.67879        -0.003932     -0.007913     -0.000706
     -1.90464      5.59454     10.67880        -0.008819      0.000551     -0.000706
     -3.88550      8.97319     10.67908         0.000000      0.000000     -0.004597
      3.87829      2.28314     10.67880         0.003932     -0.007913     -0.000706
      1.94272      5.60824     10.28695         0.000000      0.000000     -0.013988
      0.03089      8.94703     10.67880        -0.004887      0.007362     -0.000706
      7.77093      2.24329     10.66629         0.000000      0.000000     -0.004101
      5.79009      5.59453     10.67880         0.008819      0.000551     -0.000706
      3.85451      8.94705     10.67879         0.004887      0.007362     -0.000706
      1.94273      1.12609     11.19515         0.000000     -0.007867      0.000333
      0.06542      4.52437     11.25825        -0.000093     -0.000054     -0.010521
     -1.93892      7.84932     11.19515        -0.006813      0.003934      0.000333
      5.82194      1.11803     11.15850         0.008434      0.004869     -0.001381
      3.82002      4.52437     11.25824         0.000093     -0.000054     -0.010521
      1.94271      7.77598     11.25825        -0.000000      0.000108     -0.010521
      9.71993      1.11803     11.15850        -0.008434      0.004869     -0.001381
      7.77093      4.49382     11.15850         0.000000     -0.009738     -0.001381
      5.82433      7.84932     11.19515         0.006813      0.003934      0.000333
      0.02517      2.31698      8.08737        -0.002619     -0.005428      0.004500
     -1.86635      5.59321      8.08737        -0.006010      0.000446      0.004500
     -3.88550      8.97319      8.04500         0.000000      0.000000      0.015708
      3.86028      2.31697      8.08737         0.002619     -0.005428      0.004500
      0.05119      8.91454      8.08737        -0.003391      0.004982      0.004500
      7.77093      2.24330      8.01990         0.000000      0.000000      0.006321
      5.75179      5.59321      8.08737         0.006010      0.000446      0.004500
      3.83421      8.91453      8.08737         0.003391      0.004982      0.004500
 -----------------------------------------------------------------------------------
    total drift:                               -0.000111      0.001147     -0.002807


--------------------------------------------------------------------------------------------------------



  FREE ENERGIE OF THE ION-ELECTRON SYSTEM (eV)
  ---------------------------------------------------
  free  energy   TOTEN  =      -190.88940425 eV

  energy  without entropy=     -190.88940425  energy(sigma->0) =     -190.88940425
 


--------------------------------------------------------------------------------------------------------


    POTLOK:  cpu time      0.6274: real time      0.6298


--------------------------------------------------------------------------------------------------------


 writing wavefunctions
     LOOP+:  cpu time    997.1425: real time   1001.6731
    4ORBIT:  cpu time      0.0000: real time      0.0000



 total charge

# of ion       s       p       d       tot
------------------------------------------
    1        0.324   0.227   9.618  10.170
    2        0.324   0.227   9.618  10.169
    3        0.324   0.227   9.618  10.169
    4        0.324   0.227   9.618  10.170
    5        0.324   0.227   9.618  10.170
    6        0.324   0.227   9.618  10.169
    7        0.324   0.227   9.618  10.170
    8        0.324   0.227   9.618  10.170
    9        0.324   0.227   9.618  10.170
   10        1.603   3.503   0.000   5.106
   11        1.603   3.503   0.000   5.106
   12        1.603   3.503   0.000   5.106
   13        1.603   3.503   0.000   5.106
   14        1.603   3.503   0.000   5.106
   15        1.603   3.503   0.000   5.106
   16        1.603   3.503   0.000   5.106
   17        1.603   3.503   0.000   5.106
   18        1.603   3.503   0.000   5.106
   19        1.604   3.505   0.000   5.109
   20        1.604   3.505   0.000   5.109
   21        1.604   3.505   0.000   5.109
   22        1.604   3.505   0.000   5.109
   23        1.605   3.502   0.000   5.107
   24        1.604   3.505   0.000   5.109
   25        1.604   3.505   0.000   5.109
   26        1.604   3.505   0.000   5.109
   27        1.604   3.505   0.000   5.109
   28        0.516   0.456   9.804  10.776
   29        0.521   0.387   9.783  10.691
   30        0.516   0.456   9.804  10.776
   31        0.507   0.432   9.802  10.740
   32        0.521   0.387   9.783  10.691
   33        0.521   0.387   9.783  10.691
   34        0.507   0.432   9.802  10.740
   35        0.507   0.432   9.802  10.740
   36        0.516   0.456   9.804  10.776
   37        0.515   0.455   9.804  10.774
   38        0.515   0.455   9.804  10.774
   39        0.516   0.455   9.805  10.776
   40        0.515   0.455   9.804  10.774
   41        0.542   0.503   9.755  10.800
   42        0.515   0.455   9.804  10.774
   43        0.518   0.457   9.805  10.779
   44        0.515   0.455   9.804  10.774
   45        0.515   0.455   9.804  10.774
   46        1.326   2.413   0.000   3.739
   47        1.336   2.383   0.000   3.719
   48        1.326   2.413   0.000   3.739
   49        1.325   2.414   0.000   3.739
   50        1.336   2.383   0.000   3.719
   51        1.336   2.383   0.000   3.719
   52        1.325   2.414   0.000   3.739
   53        1.325   2.414   0.000   3.739
   54        1.326   2.413   0.000   3.739
   55        1.327   2.395   0.000   3.722
   56        1.327   2.395   0.000   3.722
   57        1.325   2.405   0.000   3.730
   58        1.327   2.395   0.000   3.722
   59        1.327   2.395   0.000   3.722
   60        1.327   2.404   0.000   3.730
   61        1.327   2.395   0.000   3.722
   62        1.327   2.395   0.000   3.722
--------------------------------------------------
tot         63.654 113.894 262.920 440.467
 

 total amount of memory used by VASP MPI-rank0   263262. kBytes
=======================================================================

   base      :      30000. kBytes
   nonl-proj :      24099. kBytes
   fftplans  :      79971. kBytes
   grid      :      45515. kBytes
   one-center:         93. kBytes
   wavefun   :      83584. kBytes
 
  
  
 General timing and accounting informations for this job:
 ========================================================
  
                  Total CPU time used (sec):     1032.443
                            User time (sec):     1023.319
                          System time (sec):        9.124
                         Elapsed time (sec):     1037.661
  
                   Maximum memory used (kb):      584152.
                   Average memory used (kb):          N/A
  
                          Minor page faults:       201826
                          Major page faults:           17
                 Voluntary context switches:          932
