 vasp.6.1.2 22Jul20 (build Aug 13 2020 05:42:33) complex                        
  
 executed on             LinuxIFC date 2025.07.02  03:07:39
 running on   32 total cores
 distrk:  each k-point on   32 cores,    1 groups
 distr:  one band on NCORE=  16 cores,    2 groups


--------------------------------------------------------------------------------------------------------


 INCAR:
 POTCAR:    PAW_PBE Cd 06Sep2000                  
 POTCAR:    PAW_PBE Cl 06Sep2000                  
 POTCAR:    PAW_PBE Zn 06Sep2000                  
 POTCAR:    PAW_PBE S 06Sep2000                   
 -----------------------------------------------------------------------------
|                                                                             |
|           W    W    AA    RRRRR   N    N  II  N    N   GGGG   !!!           |
|           W    W   A  A   R    R  NN   N  II  NN   N  G    G  !!!           |
|           W    W  A    A  R    R  N N  N  II  N N  N  G       !!!           |
|           W WW W  AAAAAA  RRRRR   N  N N  II  N  N N  G  GGG   !            |
|           WW  WW  A    A  R   R   N   NN  II  N   NN  G    G                |
|           W    W  A    A  R    R  N    N  II  N    N   GGGG   !!!           |
|                                                                             |
|     For optimal performance we recommend to set                             |
|       NCORE = 4 - approx SQRT(number of cores).                             |
|     NCORE specifies how many cores store one orbital (NPAR=cpu/NCORE).      |
|     This setting can greatly improve the performance of VASP for DFT.       |
|     The default, NCORE=1 might be grossly inefficient on modern             |
|     multi-core architectures or massively parallel machines. Do your        |
|     own testing!!!!                                                         |
|     Unfortunately you need to use the default for GW and RPA                |
|     calculations (for HF NCORE is supported but not extensively tested      |
|     yet).                                                                   |
|                                                                             |
 -----------------------------------------------------------------------------

 POTCAR:    PAW_PBE Cd 06Sep2000                  
   SHA256 =  8b7ca71966beae5276c8bb910adb3ecc013a3354c27473914c94cd54c83be4f7 Cd/POTCAR             
   COPYR  = (c) Copyright 06Sep2000 Georg Kresse                                                    
   COPYR  = This file is part of the software VASP. Any use, copying, and all other rights are regul
   COPYR  = If you do not have a valid VASP license, you may not use, copy or distribute this file. 
   VRHFIN =Cd : s2 d10                                                                              
   LEXCH  = PE                                                                                      
   EATOM  =  1293.1815 eV,   95.0462 Ry                                                             
                                                                                                    
   TITEL  = PAW_PBE Cd 06Sep2000                                                                    
   LULTRA =        F    use ultrasoft PP ?                                                          
   IUNSCR =        1    unscreen: 0-lin 1-nonlin 2-no                                               
   RPACOR =    2.000    partial core radius                                                         
   POMASS =  112.411; ZVAL   =   12.000    mass and valenz                                          
   RCORE  =    2.300    outmost cutoff radius                                                       
   RWIGS  =    2.980; RWIGS  =    1.577    wigner-seitz radius (au A)                               
   ENMAX  =  274.336; ENMIN  =  205.752 eV                                                          
   RCLOC  =    2.054    cutoff for local pot                                                        
   LCOR   =        T    correct aug charges                                                         
   LPAW   =        T    paw PP                                                                      
   EAUG   =  456.106                                                                                
   DEXC   =    0.000                                                                                
   RMAX   =    2.358    core radius for proj-oper                                                   
   RAUG   =    1.300    factor for augmentation sphere                                              
   RDEP   =    2.450    radius for radial grids                                                     
   RDEPT  =    1.955    core radius for aug-charge                                                  
                                                                                                    
   Atomic configuration                                                                             
   12 entries                                                                                       
     n  l   j            E        occ.                                                              
     1  0  0.50    -26519.7817   2.0000                                                             
     2  0  0.50     -3936.9612   2.0000                                                             
     2  1  1.50     -3532.2230   6.0000                                                             
     3  0  0.50      -733.7908   2.0000                                                             
     3  1  1.50      -601.0792   6.0000                                                             
     3  2  2.50      -393.5307  10.0000                                                             
     4  0  0.50      -105.8977   2.0000                                                             
     4  1  1.50       -66.9488   6.0000                                                             
     4  2  2.50       -11.7331  10.0000                                                             
     5  0  0.50        -5.6592   2.0000                                                             
     5  1  0.50        -1.3606   0.0000                                                             
     4  3  2.50        -1.3606   0.0000                                                             
   Description                                                                                      
     l       E           TYP  RCUT    TYP  RCUT                                                     
     2    -11.7331479     23  2.300                                                                 
     2    -13.0937305     23  2.300                                                                 
     0     -5.6591502     23  2.300                                                                 
     0     -1.5561433     23  2.300                                                                 
     1     -2.7211652     23  2.300                                                                 
     1      8.3548275     23  2.300                                                                 
  local pseudopotential read in
  partial core-charges read in
  partial kinetic energy density read in
  atomic valenz-charges read in
  non local Contribution for L=           2  read in
    real space projection operators read in
  non local Contribution for L=           2  read in
    real space projection operators read in
  non local Contribution for L=           0  read in
    real space projection operators read in
  non local Contribution for L=           0  read in
    real space projection operators read in
  non local Contribution for L=           1  read in
    real space projection operators read in
  non local Contribution for L=           1  read in
    real space projection operators read in
    PAW grid and wavefunctions read in
 
   number of l-projection  operators is LMAX  =           6
   number of lm-projection operators is LMMAX =          18
 
 POTCAR:    PAW_PBE Cl 06Sep2000                  
   SHA256 =  9f1b6e6ed4247ac726a768b330d26d7667cc3c95a39ff49c1d064c2d9dcce931 Cl/POTCAR             
   COPYR  = (c) Copyright 06Sep2000 Georg Kresse                                                    
   COPYR  = This file is part of the software VASP. Any use, copying, and all other rights are regul
   COPYR  = If you do not have a valid VASP license, you may not use, copy or distribute this file. 
   VRHFIN =Cl: s2p5                                                                                 
   LEXCH  = PE                                                                                      
   EATOM  =   409.7259 eV,   30.1140 Ry                                                             
                                                                                                    
   TITEL  = PAW_PBE Cl 06Sep2000                                                                    
   LULTRA =        F    use ultrasoft PP ?                                                          
   IUNSCR =        1    unscreen: 0-lin 1-nonlin 2-no                                               
   RPACOR =    1.500    partial core radius                                                         
   POMASS =   35.453; ZVAL   =    7.000    mass and valenz                                          
   RCORE  =    1.900    outmost cutoff radius                                                       
   RWIGS  =    2.100; RWIGS  =    1.111    wigner-seitz radius (au A)                               
   ENMAX  =  262.472; ENMIN  =  196.854 eV                                                          
   ICORE  =        2    local potential                                                             
   LCOR   =        T    correct aug charges                                                         
   LPAW   =        T    paw PP                                                                      
   EAUG   =  356.192                                                                                
   DEXC   =    0.000                                                                                
   RMAX   =    1.945    core radius for proj-oper                                                   
   RAUG   =    1.300    factor for augmentation sphere                                              
   RDEP   =    2.020    radius for radial grids                                                     
   RDEPT  =    1.678    core radius for aug-charge                                                  
                                                                                                    
   Atomic configuration                                                                             
    6 entries                                                                                       
     n  l   j            E        occ.                                                              
     1  0  0.50     -2751.1850   2.0000                                                             
     2  0  0.50      -252.6861   2.0000                                                             
     2  1  1.50      -191.6157   6.0000                                                             
     3  0  0.50       -20.6916   2.0000                                                             
     3  1  0.50        -8.5949   5.0000                                                             
     3  2  1.50        -8.1635   0.0000                                                             
   Description                                                                                      
     l       E           TYP  RCUT    TYP  RCUT                                                     
     0    -20.6915656     23  1.900                                                                 
     0    -22.0521482     23  1.900                                                                 
     1     -8.5948577     23  1.900                                                                 
     1     -5.3847331     23  1.900                                                                 
     2     -8.1634956     23  1.900                                                                 
  local pseudopotential read in
  partial core-charges read in
  partial kinetic energy density read in
  atomic valenz-charges read in
  non local Contribution for L=           0  read in
    real space projection operators read in
  non local Contribution for L=           0  read in
    real space projection operators read in
  non local Contribution for L=           1  read in
    real space projection operators read in
  non local Contribution for L=           1  read in
    real space projection operators read in
    PAW grid and wavefunctions read in
 
   number of l-projection  operators is LMAX  =           4
   number of lm-projection operators is LMMAX =           8
 
 POTCAR:    PAW_PBE Zn 06Sep2000                  
   SHA256 =  501fddbd8274dd8e9725d4f3de27861d7f1e553a7e18441bc79fed8f346e7f23 Zn/POTCAR             
   COPYR  = (c) Copyright 06Sep2000 Georg Kresse                                                    
   COPYR  = This file is part of the software VASP. Any use, copying, and all other rights are regul
   COPYR  = If you do not have a valid VASP license, you may not use, copy or distribute this file. 
   VRHFIN =Zn: d10 p2                                                                               
   LEXCH  = PE                                                                                      
   EATOM  =  1748.8345 eV,  128.5357 Ry                                                             
                                                                                                    
   TITEL  = PAW_PBE Zn 06Sep2000                                                                    
   LULTRA =        F    use ultrasoft PP ?                                                          
   IUNSCR =        1    unscreen: 0-lin 1-nonlin 2-no                                               
   RPACOR =    2.000    partial core radius                                                         
   POMASS =   65.390; ZVAL   =   12.000    mass and valenz                                          
   RCORE  =    2.300    outmost cutoff radius                                                       
   RWIGS  =    2.400; RWIGS  =    1.270    wigner-seitz radius (au A)                               
   ENMAX  =  276.723; ENMIN  =  207.542 eV                                                          
   RCLOC  =    1.828    cutoff for local pot                                                        
   LCOR   =        T    correct aug charges                                                         
   LPAW   =        T    paw PP                                                                      
   EAUG   =  575.892                                                                                
   DEXC   =    0.000                                                                                
   RMAX   =    2.347    core radius for proj-oper                                                   
   RAUG   =    1.300    factor for augmentation sphere                                              
   RDEP   =    2.324    radius for radial grids                                                     
   RDEPT  =    1.788    core radius for aug-charge                                                  
                                                                                                    
   Atomic configuration                                                                             
    9 entries                                                                                       
     n  l   j            E        occ.                                                              
     1  0  0.50     -9524.6913   2.0000                                                             
     2  0  0.50     -1158.1882   2.0000                                                             
     2  1  1.50     -1003.8506   6.0000                                                             
     3  0  0.50      -129.2194   2.0000                                                             
     3  1  1.50       -83.3890   6.0000                                                             
     3  2  2.50       -10.1410  10.0000                                                             
     4  0  0.50        -5.9785   2.0000                                                             
     4  1  0.50        -4.0817   0.0000                                                             
     4  3  2.50        -1.3606   0.0000                                                             
   Description                                                                                      
     l       E           TYP  RCUT    TYP  RCUT                                                     
     2    -10.1410010     23  2.300                                                                 
     2    -11.5015836     23  2.300                                                                 
     0     -5.9785163     23  2.300                                                                 
     0      1.1858015     23  2.300                                                                 
     1     -2.7211652     23  2.300                                                                 
     1     13.2444212     23  2.300                                                                 
  local pseudopotential read in
  partial core-charges read in
  partial kinetic energy density read in
  atomic valenz-charges read in
  non local Contribution for L=           2  read in
    real space projection operators read in
  non local Contribution for L=           2  read in
    real space projection operators read in
  non local Contribution for L=           0  read in
    real space projection operators read in
  non local Contribution for L=           0  read in
    real space projection operators read in
  non local Contribution for L=           1  read in
    real space projection operators read in
  non local Contribution for L=           1  read in
    real space projection operators read in
    PAW grid and wavefunctions read in
 
   number of l-projection  operators is LMAX  =           6
   number of lm-projection operators is LMMAX =          18
 
 POTCAR:    PAW_PBE S 06Sep2000                   
   SHA256 =  0fc7481fb0695f01bdc6462160264c5c84044ae9ec85a907d398b887a2bc3132 S/POTCAR              
   COPYR  = (c) Copyright 06Sep2000 Georg Kresse                                                    
   COPYR  = This file is part of the software VASP. Any use, copying, and all other rights are regul
   COPYR  = If you do not have a valid VASP license, you may not use, copy or distribute this file. 
   VRHFIN =S : s2p4                                                                                 
   LEXCH  = PE                                                                                      
   EATOM  =   276.8230 eV,   20.3459 Ry                                                             
                                                                                                    
   TITEL  = PAW_PBE S 06Sep2000                                                                     
   LULTRA =        F    use ultrasoft PP ?                                                          
   IUNSCR =        1    unscreen: 0-lin 1-nonlin 2-no                                               
   RPACOR =    1.500    partial core radius                                                         
   POMASS =   32.066; ZVAL   =    6.000    mass and valenz                                          
   RCORE  =    1.900    outmost cutoff radius                                                       
   RWIGS  =    2.200; RWIGS  =    1.164    wigner-seitz radius (au A)                               
   ENMAX  =  258.689; ENMIN  =  194.016 eV                                                          
   ICORE  =        2    local potential                                                             
   LCOR   =        T    correct aug charges                                                         
   LPAW   =        T    paw PP                                                                      
   EAUG   =  335.092                                                                                
   DEXC   =    0.000                                                                                
   RMAX   =    1.942    core radius for proj-oper                                                   
   RAUG   =    1.300    factor for augmentation sphere                                              
   RDEP   =    1.954    radius for radial grids                                                     
   RDEPT  =    1.744    core radius for aug-charge                                                  
                                                                                                    
   Atomic configuration                                                                             
    6 entries                                                                                       
     n  l   j            E        occ.                                                              
     1  0  0.50     -2405.8406   2.0000                                                             
     2  0  0.50      -211.7007   2.0000                                                             
     2  1  1.50      -156.4958   6.0000                                                             
     3  0  0.50       -17.2562   2.0000                                                             
     3  1  0.50        -7.0085   4.0000                                                             
     3  2  1.50        -6.8029   0.0000                                                             
   Description                                                                                      
     l       E           TYP  RCUT    TYP  RCUT                                                     
     0    -17.2561641     23  1.900                                                                 
     0    -15.8743224     23  1.900                                                                 
     1     -7.0085400     23  1.900                                                                 
     1     -2.7779785     23  1.900                                                                 
     2     -6.8029130     23  1.900                                                                 
  local pseudopotential read in
  partial core-charges read in
  partial kinetic energy density read in
  atomic valenz-charges read in
  non local Contribution for L=           0  read in
    real space projection operators read in
  non local Contribution for L=           0  read in
    real space projection operators read in
  non local Contribution for L=           1  read in
    real space projection operators read in
  non local Contribution for L=           1  read in
    real space projection operators read in
    PAW grid and wavefunctions read in
 
   number of l-projection  operators is LMAX  =           4
   number of lm-projection operators is LMMAX =           8
 
 -----------------------------------------------------------------------------
|                                                                             |
|               ----> ADVICE to this user running VASP <----                  |
|                                                                             |
|     You have a (more or less) 'large supercell' and for larger cells it     |
|     might be more efficient to use real-space projection operators.         |
|     Therefore, try LREAL= Auto in the INCAR file.                           |
|     Mind: For very accurate calculation, you might also keep the            |
|     reciprocal projection scheme (i.e. LREAL=.FALSE.).                      |
|                                                                             |
 -----------------------------------------------------------------------------

  PAW_PBE Cd 06Sep2000                  :
 energy of atom  1       EATOM=-1293.1815
 kinetic energy error for atom=    0.0063 (will be added to EATOM!!)
  PAW_PBE Cl 06Sep2000                  :
 energy of atom  2       EATOM= -409.7259
 kinetic energy error for atom=    0.0030 (will be added to EATOM!!)
  PAW_PBE Zn 06Sep2000                  :
 energy of atom  3       EATOM=-1748.8345
 kinetic energy error for atom=    0.0029 (will be added to EATOM!!)
  PAW_PBE S 06Sep2000                   :
 energy of atom  4       EATOM= -276.8230
 kinetic energy error for atom=    0.0020 (will be added to EATOM!!)
 
 
 POSCAR: cif2pos.py
  positions in direct lattice
  velocities in cartesian coordinates
 exchange correlation table for  LEXCH =        8
   RHO(1)=    0.500       N(1)  =     2000
   RHO(2)=  100.500       N(2)  =     4000
 


--------------------------------------------------------------------------------------------------------


 ion  position               nearest neighbor table
   1  0.334  0.000  0.627-  22 2.66  21 2.66  12 2.67  10 2.67  13 2.67  24 2.68
   2  0.334  0.333  0.626-  19 2.66  22 2.67  23 2.67  11 2.67  10 2.67  14 2.68
   3  0.334  0.667  0.627-  23 2.66  20 2.66  12 2.67  11 2.67  15 2.67  24 2.68
   4  0.667  0.000  0.629-  16 2.66  13 2.67  15 2.67  27 2.67  25 2.67  24 2.67
   5  0.667  0.334  0.628-  26 2.66  25 2.66  14 2.67  22 2.67  17 2.67  13 2.67
   6  0.667  0.667  0.628-  26 2.66  27 2.66  14 2.67  23 2.67  18 2.67  15 2.67
   7  1.000  1.000  0.627-  21 2.66  19 2.66  10 2.67  27 2.67  18 2.67  16 2.67
   8  1.000  0.334  0.627-  20 2.66  19 2.66  11 2.67  25 2.67  17 2.67  16 2.67
   9  1.000  0.667  0.628-  26 2.66  20 2.66  21 2.66  12 2.67  18 2.67  17 2.67
  10  0.223  0.112  0.685-   1 2.67   7 2.67   2 2.67
  11  0.223  0.444  0.685-   3 2.67   8 2.67   2 2.67
  12  0.224  0.779  0.685-   3 2.67   1 2.67   9 2.67
  13  0.555  0.110  0.686-   4 2.67   5 2.67   1 2.67
  14  0.554  0.443  0.686-   5 2.67   6 2.67   2 2.68
  15  0.555  0.777  0.686-   4 2.67   6 2.67   3 2.67
  16  0.890  0.112  0.686-   4 2.66   7 2.67   8 2.67
  17  0.889  0.444  0.686-   5 2.67   8 2.67   9 2.67
  18  0.889  0.779  0.686-   6 2.67   7 2.67   9 2.67
  19  0.110  0.222  0.570-   2 2.66   8 2.66   7 2.66
  20  0.111  0.556  0.570-   8 2.66   3 2.66   9 2.66
  21  0.111  0.888  0.570-   7 2.66   1 2.66   9 2.66
  22  0.447  0.222  0.569-   1 2.66   5 2.67   2 2.67
  23  0.447  0.558  0.569-   3 2.66   6 2.67   2 2.67
  24  0.448  0.890  0.569-   4 2.67   1 2.68   3 2.68
  25  0.776  0.221  0.570-   5 2.66   4 2.67   8 2.67
  26  0.778  0.556  0.571-   9 2.66   6 2.66   5 2.66
  27  0.776  0.888  0.570-   6 2.66   4 2.67   7 2.67
  28  0.224  0.112  0.344-  55 2.31  53 2.31  56 2.33  46 2.62  40 3.02
  29  0.224  0.445  0.344-  54 2.31  53 2.31  57 2.33  47 2.62  41 3.02
  30  0.230  0.782  0.345-  58 2.31  55 2.33  54 2.33  48 2.56
  31  0.556  0.109  0.361-  59 2.38  58 2.38  56 2.39  43 2.56  42 2.64  40 2.70
  32  0.557  0.445  0.342-  60 2.30  57 2.33  56 2.33  49 2.66  41 3.03  40 3.03
  33  0.556  0.780  0.361-  61 2.38  58 2.38  57 2.39  45 2.56  42 2.64  41 2.70
  34  0.881  0.107  0.344-  61 2.32  59 2.32  53 2.34  50 2.56
  35  0.887  0.438  0.344-  59 2.30  54 2.33  60 2.33  51 2.57
  36  0.887  0.782  0.344-  61 2.30  55 2.33  60 2.33  52 2.57
  37  0.108  0.221  0.428-  46 2.36  47 2.36  50 2.38  53 2.56
  38  0.112  0.557  0.427-  47 2.32  48 2.36  51 2.36  54 2.57
  39  0.112  0.889  0.427-  46 2.32  48 2.36  52 2.36  55 2.57
  40  0.451  0.223  0.423-  46 2.34  49 2.34  56 2.49  31 2.70  28 3.02  32 3.03
  41  0.451  0.562  0.423-  47 2.34  49 2.34  57 2.49  33 2.70  29 3.02  32 3.03
  42  0.467  0.900  0.424-  48 2.40  58 2.54  31 2.64  33 2.64
  43  0.753  0.208  0.426-  50 2.35  51 2.38  31 2.56  59 2.64
  44  0.781  0.557  0.426-  51 2.32  52 2.32  49 2.32  60 2.58
  45  0.753  0.878  0.426-  50 2.36  52 2.38  33 2.56  61 2.64
  46  0.228  0.113  0.449-  39 2.32  40 2.34  37 2.36  28 2.62
  47  0.228  0.449  0.449-  38 2.32  41 2.34  37 2.36  29 2.62
  48  0.236  0.785  0.447-  38 2.36  39 2.36  42 2.40  30 2.56
  49  0.558  0.446  0.448-  44 2.32  41 2.34  40 2.34  32 2.66
  50  0.876  0.105  0.447-  43 2.35  45 2.36  37 2.38  34 2.56
  51  0.884  0.437  0.447-  44 2.32  38 2.36  43 2.38  35 2.57
  52  0.884  0.780  0.447-  44 2.32  39 2.36  45 2.38  36 2.57
  53  0.108  0.221  0.326-  28 2.31  29 2.31  34 2.34  37 2.56
  54  0.112  0.557  0.325-  29 2.31  35 2.33  30 2.33  38 2.57
  55  0.112  0.889  0.325-  28 2.31  36 2.33  30 2.33  39 2.57
  56  0.448  0.219  0.324-  28 2.33  32 2.33  31 2.39  40 2.49
  57  0.448  0.562  0.324-  29 2.33  32 2.33  33 2.39  41 2.49
  58  0.453  0.893  0.323-  30 2.31  33 2.38  31 2.38  42 2.54
  59  0.770  0.218  0.321-  35 2.30  34 2.32  31 2.38  43 2.64
  60  0.780  0.557  0.323-  32 2.30  35 2.33  36 2.33  44 2.58
  61  0.770  0.885  0.321-  36 2.30  34 2.32  33 2.38  45 2.64
 
 -----------------------------------------------------------------------------
|                                                                             |
|           W    W    AA    RRRRR   N    N  II  N    N   GGGG   !!!           |
|           W    W   A  A   R    R  NN   N  II  NN   N  G    G  !!!           |
|           W    W  A    A  R    R  N N  N  II  N N  N  G       !!!           |
|           W WW W  AAAAAA  RRRRR   N  N N  II  N  N N  G  GGG   !            |
|           WW  WW  A    A  R   R   N   NN  II  N   NN  G    G                |
|           W    W  A    A  R    R  N    N  II  N    N   GGGG   !!!           |
|                                                                             |
|     The determination of the symmetry of your systems shows a strong        |
|     dependence on the tolerance parameter SYMPREC. This is often the        |
|     result of "noise" in the structural parameters (lattice vectors         |
|     and/or ionic positions). Set NWRITE=3 for more details.                 |
|                                                                             |
 -----------------------------------------------------------------------------

  Warning from LATTYP: Got some problem with cell dimensions!
  Tried to take original basis but could not verify dimensions!
  LATTYP: Found a hexagonal cell.
 ALAT       =    11.6564676184
 C/A-ratio  =     2.1447320765
  
  Lattice vectors:
  
 A1 = (   5.8281676200,  10.0948352900,   0.0000000000)
 A2 = (   5.8282323800, -10.0948352900,   0.0000000000)
 A3 = (   0.0000000000,   0.0000000000, -25.0000000000)


Analysis of symmetry for initial positions (statically):
=====================================================================
 Subroutine PRICEL returns:
 Original cell was already a primitive cell.
 

 Routine SETGRP: Setting up the symmetry group for a 
 hexagonal supercell.


 Subroutine GETGRP returns: Found  1 space group operations
 (whereof  1 operations were pure point group operations)
 out of a pool of 24 trial point group operations.


The static configuration has the point symmetry C_1 .


Analysis of symmetry for dynamics (positions and initial velocities):
=====================================================================
 Subroutine PRICEL returns:
 Original cell was already a primitive cell.
 

 Routine SETGRP: Setting up the symmetry group for a 
 hexagonal supercell.


 Subroutine GETGRP returns: Found  1 space group operations
 (whereof  1 operations were pure point group operations)
 out of a pool of 24 trial point group operations.


The dynamic configuration has the point symmetry C_1 .


 Subroutine INISYM returns: Found  1 space group operations
 (whereof  1 operations are pure point group operations),
 and found     1 'primitive' translations


----------------------------------------------------------------------------------------

                                     Primitive cell                                     

  volume of cell :    2941.7360

  direct lattice vectors                    reciprocal lattice vectors
    11.656400000  0.000000000  0.000000000     0.085789781  0.049530553  0.000000000
    -5.828232380 10.094835290  0.000000000     0.000000000  0.099060556  0.000000000
     0.000000000  0.000000000 25.000000000     0.000000000  0.000000000  0.040000000

  length of vectors
    11.656400000 11.656499998 25.000000000     0.099061406  0.099060556  0.040000000

  position of ions in fractional coordinates (direct lattice)
     0.333657250  0.000128727  0.626988801
     0.333582849  0.333458262  0.625883766
     0.333657355  0.666861972  0.626988884
     0.666910305  0.000122138  0.628657313
     0.666935405  0.333543017  0.628488930
     0.666935533  0.666726391  0.628489039
     0.999900905  0.999730350  0.627209149
     0.999900747  0.333504244  0.627209083
     0.999879632  0.666606600  0.628361068
     0.223025010  0.112156205  0.684652944
     0.223024905  0.444202053  0.684652903
     0.224028477  0.778680925  0.685204137
     0.554533818  0.110413171  0.686028454
     0.553626834  0.443480250  0.685526667
     0.554534072  0.777454701  0.686028418
     0.889715391  0.111524719  0.685563438
     0.889354772  0.443847718  0.686182494
     0.889355107  0.778841034  0.686182485
     0.110008306  0.221670875  0.569674607
     0.110597896  0.556011771  0.570346965
     0.110597803  0.887919561  0.570346889
     0.446680146  0.221759474  0.569466242
     0.446680430  0.558254563  0.569466216
     0.447621496  0.890477484  0.569013088
     0.775819765  0.221367422  0.570300788
     0.778170988  0.555752596  0.571188750
     0.775819962  0.887786317  0.570300790
     0.223573492  0.111852264  0.344277494
     0.223571630  0.445053444  0.344278522
     0.230320067  0.781826400  0.344873867
     0.556137565  0.109009193  0.360980821
     0.557123570  0.445229244  0.341726457
     0.556137219  0.780461361  0.360980647
     0.880945074  0.107136938  0.344276988
     0.886668078  0.438422749  0.344295469
     0.886668022  0.781579195  0.344295616
     0.108139289  0.220735608  0.428197895
     0.112489534  0.556764426  0.427309804
     0.112489277  0.889058540  0.427309582
     0.450774988  0.222500955  0.423019951
     0.450775254  0.561606481  0.423019866
     0.466784707  0.900061519  0.424106515
     0.752568218  0.208287385  0.426022598
     0.780936354  0.557135184  0.426021458
     0.752560562  0.877610426  0.426024399
     0.228198855  0.112942804  0.448914223
     0.228198143  0.448587638  0.448914144
     0.236090671  0.784711453  0.447410872
     0.557873088  0.445602405  0.448215102
     0.876419717  0.104875263  0.446752469
     0.884145112  0.437094380  0.447041280
     0.884144396  0.780384028  0.447040856
     0.108235702  0.220784390  0.325997271
     0.111909466  0.556731598  0.324709135
     0.111909295  0.888511726  0.324709114
     0.448109239  0.219164200  0.323617752
     0.448108182  0.562278881  0.323618206
     0.452730052  0.893031971  0.322596867
     0.769563528  0.217910858  0.320687955
     0.780464481  0.556899358  0.322907676
     0.769562018  0.884985198  0.320686821

  ion indices of the primitive-cell ions
   primitive index   ion index
                 1           1
                 2           2
                 3           3
                 4           4
                 5           5
                 6           6
                 7           7
                 8           8
                 9           9
                10          10
                11          11
                12          12
                13          13
                14          14
                15          15
                16          16
                17          17
                18          18
                19          19
                20          20
                21          21
                22          22
                23          23
                24          24
                25          25
                26          26
                27          27
                28          28
                29          29
                30          30
                31          31
                32          32
                33          33
                34          34
                35          35
                36          36
                37          37
                38          38
                39          39
                40          40
                41          41
                42          42
                43          43
                44          44
                45          45
                46          46
                47          47
                48          48
                49          49
                50          50
                51          51
                52          52
                53          53
                54          54
                55          55
                56          56
                57          57
                58          58
                59          59
                60          60
                61          61

----------------------------------------------------------------------------------------

 
 
 KPOINTS: K-Spacing Value to Generate K-Mesh: 0.02

Automatic generation of k-mesh.
Space group operators:
 irot       det(A)        alpha          n_x          n_y          n_z        tau_x        tau_y        tau_z
    1     1.000000     0.000000     1.000000     0.000000     0.000000     0.000000     0.000000     0.000000
 
 Subroutine IBZKPT returns following result:
 ===========================================
 
 Found     13 irreducible k-points:
 
 Following reciprocal coordinates:
            Coordinates               Weight
  0.000000  0.000000  0.000000      1.000000
  0.200000 -0.000000  0.000000      2.000000
  0.200000 -0.200000  0.000000      2.000000
  0.000000 -0.200000  0.000000      2.000000
  0.400000 -0.000000  0.000000      2.000000
  0.400000 -0.400000  0.000000      2.000000
  0.000000 -0.400000  0.000000      2.000000
  0.200000  0.200000  0.000000      2.000000
  0.400000 -0.200000  0.000000      2.000000
  0.200000 -0.400000  0.000000      2.000000
  0.400000  0.200000  0.000000      2.000000
 -0.400000 -0.400000  0.000000      2.000000
  0.200000  0.400000  0.000000      2.000000
 
 Following cartesian coordinates:
            Coordinates               Weight
  0.000000  0.000000  0.000000      1.000000
  0.017158  0.009906  0.000000      2.000000
  0.017158 -0.009906  0.000000      2.000000
  0.000000 -0.019812  0.000000      2.000000
  0.034316  0.019812  0.000000      2.000000
  0.034316 -0.019812  0.000000      2.000000
  0.000000 -0.039624  0.000000      2.000000
  0.017158  0.029718  0.000000      2.000000
  0.034316  0.000000  0.000000      2.000000
  0.017158 -0.029718  0.000000      2.000000
  0.034316  0.039624  0.000000      2.000000
 -0.034316 -0.059436  0.000000      2.000000
  0.017158  0.049530  0.000000      2.000000
 


--------------------------------------------------------------------------------------------------------




 Dimension of arrays:
   k-points           NKPTS =     13   k-points in BZ     NKDIM =     13   number of bands    NBANDS=    328
   number of dos      NEDOS =   2001   number of ions     NIONS =     61
   non local maximal  LDIM  =      6   non local SUM 2l+1 LMDIM =     18
   total plane-waves  NPLWV = ******
   max r-space proj   IRMAX =      1   max aug-charges    IRDMAX= 179030
   dimension x,y,z NGX =    90 NGY =   90 NGZ =  192
   dimension x,y,z NGXF=   180 NGYF=  180 NGZF=  384
   support grid    NGXF=   360 NGYF=  360 NGZF=  768
   ions per type =               9  18  18  16
   NGX,Y,Z   is equivalent  to a cutoff of  12.84, 12.84, 12.77 a.u.
   NGXF,Y,Z  is equivalent  to a cutoff of  25.67, 25.67, 25.54 a.u.

 SYSTEM =  unknown system                          
 POSCAR =  cif2pos.py                              

 Startparameter for this run:
   NWRITE =      2    write-flag & timer
   PREC   = accura    normal or accurate (medium, high low for compatibility)
   ISTART =      0    job   : 0-new  1-cont  2-samecut
   ICHARG =      2    charge: 1-file 2-atom 10-const
   ISPIN  =      1    spin polarized calculation?
   LNONCOLLINEAR =      F non collinear calculations
   LSORBIT =      F    spin-orbit coupling
   INIWAV =      1    electr: 0-lowe 1-rand  2-diag
   LASPH  =      T    aspherical Exc in radial PAW
   METAGGA=      F    non-selfconsistent MetaGGA calc.

 Electronic Relaxation 1
   ENCUT  =  500.0 eV  36.75 Ry    6.06 a.u.  21.25 21.25 45.58*2*pi/ulx,y,z
   ENINI  =  500.0     initial cutoff
   ENAUG  =  575.9 eV  augmentation charge cutoff
   NELM   =     60;   NELMIN=  2; NELMDL=  0     # of ELM steps 
   EDIFF  = 0.1E-07   stopping-criterion for ELM
   LREAL  =      F    real-space projection
   NLSPLINE    = F    spline interpolate recip. space projectors
   LCOMPAT=      F    compatible to vasp.4.4
   GGA_COMPAT  = T    GGA compatible to vasp.4.4-vasp.4.6
   LMAXPAW     = -100 max onsite density
   LMAXMIX     =    2 max onsite mixed and CHGCAR
   VOSKOWN=      0    Vosko Wilk Nusair interpolation
   ROPT   =    0.00000   0.00000   0.00000   0.00000
 Ionic relaxation
   EDIFFG = 0.1E-06   stopping-criterion for IOM
   NSW    =      0    number of steps for IOM
   NBLOCK =      1;   KBLOCK =      1    inner block; outer block 
   IBRION =     -1    ionic relax: 0-MD 1-quasi-New 2-CG
   NFREE  =      0    steps in history (QN), initial steepest desc. (CG)
   ISIF   =      2    stress and relaxation
   IWAVPR =     10    prediction:  0-non 1-charg 2-wave 3-comb
   ISYM   =      2    0-nonsym 1-usesym 2-fastsym
   LCORR  =      T    Harris-Foulkes like correction to forces

   POTIM  = 0.5000    time-step for ionic-motion
   TEIN   =    0.0    initial temperature
   TEBEG  =    0.0;   TEEND  =   0.0 temperature during run
   SMASS  =  -3.00    Nose mass-parameter (am)
   estimated Nose-frequenzy (Omega)   =  0.10E-29 period in steps = 0.13E+47 mass=  -0.311E-26a.u.
   SCALEE = 1.0000    scale energy and forces
   NPACO  =    256;   APACO  = 16.0  distance and # of slots for P.C.
   PSTRESS=    0.0 pullay stress

  Mass of Ions in am
   POMASS = 112.41 35.45 65.39 32.07
  Ionic Valenz
   ZVAL   =  12.00  7.00 12.00  6.00
  Atomic Wigner-Seitz radii
   RWIGS  =  -1.00 -1.00 -1.00 -1.00
  virtual crystal weights 
   VCA    =   1.00  1.00  1.00  1.00
   NELECT =     546.0000    total number of electrons
   NUPDOWN=      -1.0000    fix difference up-down

 DOS related values:
   EMIN   =  10.00;   EMAX   =-10.00  energy-range for DOS
   EFERMI =   0.00
   ISMEAR =     0;   SIGMA  =   0.05  broadening in eV -4-tet -1-fermi 0-gaus

 Electronic relaxation 2 (details)
   IALGO  =     38    algorithm
   LDIAG  =      T    sub-space diagonalisation (order eigenvalues)
   LSUBROT=      F    optimize rotation matrix (better conditioning)
   TURBO    =      0    0=normal 1=particle mesh
   IRESTART =      0    0=no restart 2=restart with 2 vectors
   NREBOOT  =      0    no. of reboots
   NMIN     =      0    reboot dimension
   EREF     =   0.00    reference energy to select bands
   IMIX   =      4    mixing-type and parameters
     AMIX     =   0.40;   BMIX     =  1.00
     AMIX_MAG =   1.60;   BMIX_MAG =  1.00
     AMIN     =   0.10
     WC   =   100.;   INIMIX=   1;  MIXPRE=   1;  MAXMIX= -45

 Intra band minimization:
   WEIMIN = 0.0000     energy-eigenvalue tresh-hold
   EBREAK =  0.76E-11  absolut break condition
   DEPER  =   0.30     relativ break condition  

   TIME   =   0.40     timestep for ELM

  volume/ion in A,a.u.               =      48.23       325.44
  Fermi-wavevector in a.u.,A,eV,Ry     =   0.933837  1.764696 11.864985  0.872052
  Thomas-Fermi vector in A             =   2.060580
 
 Write flags
   LWAVE        =      T    write WAVECAR
   LDOWNSAMPLE  =      F    k-point downsampling of WAVECAR
   LCHARG       =      T    write CHGCAR
   LVTOT        =      F    write LOCPOT, total local potential
   LVHAR        =      T    write LOCPOT, Hartree potential only
   LELF         =      F    write electronic localiz. function (ELF)
   LORBIT       =     11    0 simple, 1 ext, 2 COOP (PROOUT), +10 PAW based schemes


 Dipole corrections
   LMONO  =      F    monopole corrections only (constant potential shift)
   LDIPOL =      F    correct potential (dipole corrections)
   IDIPOL =      0    1-x, 2-y, 3-z, 4-all directions 
   EPSILON=  1.0000000 bulk dielectric constant

 Exchange correlation treatment:
   GGA     =    --    GGA type
   LEXCH   =     8    internal setting for exchange type
   VOSKOWN=      0    Vosko Wilk Nusair interpolation
   LHFCALC =     F    Hartree Fock is set to
   LHFONE  =     F    Hartree Fock one center treatment
   AEXX    =    0.0000 exact exchange contribution

 Linear response parameters
   LEPSILON=     F    determine dielectric tensor
   LRPA    =     F    only Hartree local field effects (RPA)
   LNABLA  =     F    use nabla operator in PAW spheres
   LVEL    =     F    velocity operator in full k-point grid
   LINTERFAST=   F  fast interpolation
   KINTER  =     0    interpolate to denser k-point grid
   CSHIFT  =0.1000    complex shift for real part using Kramers Kronig
   OMEGAMAX=  -1.0    maximum frequency
   DEG_THRESHOLD= 0.2000000E-02 threshold for treating states as degnerate
   RTIME   =   -0.100 relaxation time in fs
  (WPLASMAI=    0.000 imaginary part of plasma frequency in eV, 0.658/RTIME)
   DFIELD  = 0.0000000 0.0000000 0.0000000 field for delta impulse in time
 
 Orbital magnetization related:
   ORBITALMAG=     F  switch on orbital magnetization
   LCHIMAG   =     F  perturbation theory with respect to B field
   DQ        =  0.001000  dq finite difference perturbation B field
   LLRAUG    =     F  two centre corrections for induced B field



--------------------------------------------------------------------------------------------------------


 Static calculation
 charge density and potential will be updated during run
 non-spin polarized calculation
 Variant of blocked Davidson
 Davidson routine will perform the subspace rotation
 perform sub-space diagonalisation
    after iterative eigenvector-optimisation
 modified Broyden-mixing scheme, WC =      100.0
 initial mixing is a Kerker type mixing with AMIX =  0.4000 and BMIX =      1.0000
 Hartree-type preconditioning will be used
 using additional bands           55
 reciprocal scheme for non local part
 use partial core corrections
 calculate Harris-corrections to forces 
   (improved forces if not selfconsistent)
 use gradient corrections 
 use of overlap-Matrix (Vanderbilt PP)
 Gauss-broadening in eV      SIGMA  =   0.05


--------------------------------------------------------------------------------------------------------


  energy-cutoff  :      500.00
  volume of cell :     2941.74
      direct lattice vectors                 reciprocal lattice vectors
    11.656400000  0.000000000  0.000000000     0.085789781  0.049530553  0.000000000
    -5.828232380 10.094835290  0.000000000     0.000000000  0.099060556  0.000000000
     0.000000000  0.000000000 25.000000000     0.000000000  0.000000000  0.040000000

  length of vectors
    11.656400000 11.656499998 25.000000000     0.099061406  0.099060556  0.040000000


 
 k-points in units of 2pi/SCALE and weight: K-Spacing Value to Generate K-Mesh: 0.02
   0.00000000  0.00000000  0.00000000       0.040
   0.01715796  0.00990611  0.00000000       0.080
   0.01715796 -0.00990600  0.00000000       0.080
   0.00000000 -0.01981211  0.00000000       0.080
   0.03431591  0.01981222  0.00000000       0.080
   0.03431591 -0.01981200  0.00000000       0.080
   0.00000000 -0.03962422  0.00000000       0.080
   0.01715796  0.02971822  0.00000000       0.080
   0.03431591  0.00000011  0.00000000       0.080
   0.01715796 -0.02971811  0.00000000       0.080
   0.03431591  0.03962433  0.00000000       0.080
  -0.03431591 -0.05943644  0.00000000       0.080
   0.01715796  0.04953033  0.00000000       0.080
 
 k-points in reciprocal lattice and weights: K-Spacing Value to Generate K-Mesh: 0.02
   0.00000000  0.00000000  0.00000000       0.040
   0.20000000 -0.00000000  0.00000000       0.080
   0.20000000 -0.20000000  0.00000000       0.080
   0.00000000 -0.20000000  0.00000000       0.080
   0.40000000 -0.00000000  0.00000000       0.080
   0.40000000 -0.40000000  0.00000000       0.080
   0.00000000 -0.40000000  0.00000000       0.080
   0.20000000  0.20000000  0.00000000       0.080
   0.40000000 -0.20000000  0.00000000       0.080
   0.20000000 -0.40000000  0.00000000       0.080
   0.40000000  0.20000000  0.00000000       0.080
  -0.40000000 -0.40000000  0.00000000       0.080
   0.20000000  0.40000000  0.00000000       0.080
 
 position of ions in fractional coordinates (direct lattice) 
   0.33365725  0.00012873  0.62698880
   0.33358285  0.33345826  0.62588377
   0.33365736  0.66686197  0.62698888
   0.66691030  0.00012214  0.62865731
   0.66693540  0.33354302  0.62848893
   0.66693553  0.66672639  0.62848904
   0.99990090  0.99973035  0.62720915
   0.99990075  0.33350424  0.62720908
   0.99987963  0.66660660  0.62836107
   0.22302501  0.11215620  0.68465294
   0.22302490  0.44420205  0.68465290
   0.22402848  0.77868092  0.68520414
   0.55453382  0.11041317  0.68602845
   0.55362683  0.44348025  0.68552667
   0.55453407  0.77745470  0.68602842
   0.88971539  0.11152472  0.68556344
   0.88935477  0.44384772  0.68618249
   0.88935511  0.77884103  0.68618248
   0.11000831  0.22167087  0.56967461
   0.11059790  0.55601177  0.57034696
   0.11059780  0.88791956  0.57034689
   0.44668015  0.22175947  0.56946624
   0.44668043  0.55825456  0.56946622
   0.44762150  0.89047748  0.56901309
   0.77581977  0.22136742  0.57030079
   0.77817099  0.55575260  0.57118875
   0.77581996  0.88778632  0.57030079
   0.22357349  0.11185226  0.34427749
   0.22357163  0.44505344  0.34427852
   0.23032007  0.78182640  0.34487387
   0.55613756  0.10900919  0.36098082
   0.55712357  0.44522924  0.34172646
   0.55613722  0.78046136  0.36098065
   0.88094507  0.10713694  0.34427699
   0.88666808  0.43842275  0.34429547
   0.88666802  0.78157919  0.34429562
   0.10813929  0.22073561  0.42819790
   0.11248953  0.55676443  0.42730980
   0.11248928  0.88905854  0.42730958
   0.45077499  0.22250096  0.42301995
   0.45077525  0.56160648  0.42301987
   0.46678471  0.90006152  0.42410651
   0.75256822  0.20828739  0.42602260
   0.78093635  0.55713518  0.42602146
   0.75256056  0.87761043  0.42602440
   0.22819886  0.11294280  0.44891422
   0.22819814  0.44858764  0.44891414
   0.23609067  0.78471145  0.44741087
   0.55787309  0.44560240  0.44821510
   0.87641972  0.10487526  0.44675247
   0.88414511  0.43709438  0.44704128
   0.88414440  0.78038403  0.44704086
   0.10823570  0.22078439  0.32599727
   0.11190947  0.55673160  0.32470914
   0.11190929  0.88851173  0.32470911
   0.44810924  0.21916420  0.32361775
   0.44810818  0.56227888  0.32361821
   0.45273005  0.89303197  0.32259687
   0.76956353  0.21791086  0.32068795
   0.78046448  0.55689936  0.32290768
   0.76956202  0.88498520  0.32068682
 
 position of ions in cartesian coordinates  (Angst):
   3.88849212  0.00129948 15.67472002
   1.94490288  3.36620623 15.64709414
   0.00261706  6.73186177 15.67472211
   7.77306143  0.00123296 15.71643283
   5.83009964  3.36706182 15.71222326
   3.88823101  6.73049310 15.71222596
   5.82858411 10.09211322 15.68022874
   9.71150284  3.36667041 15.68022707
   7.76985877  6.72928383 15.70902669
   1.94599630  1.13219841 17.11632361
   0.01075471  4.48414656 17.11632258
  -1.92696784  7.86065568 17.13010343
   5.82035438  1.11460277 17.15071134
   3.86858988  4.47686007 17.13816668
   1.93268429  7.84827715 17.15071044
   9.72088651  1.12582367 17.13908596
   7.77982732  4.48056961 17.15456236
   5.82741234  7.86227196 17.15456212
  -0.00964855  2.23773097 14.24186517
  -1.95139250  5.61284725 14.25867412
  -3.88582930  8.96340172 14.25867223
   3.91421671  2.23862536 14.23665606
   1.95304844  5.63548786 14.23665539
   0.02774550  8.98922353 14.22532721
   7.75308474  2.23466766 14.25751971
   5.83161703  5.61023091 14.27971874
   3.86904285  8.96205665 14.25751974
   1.95416107  1.12913019  8.60693734
   0.01216545  4.49274121  8.60696305
  -1.87196311  7.89240873  8.62184668
   5.84723101  1.10042985  9.02452052
   3.89915568  4.49451588  8.54316144
   1.93384771  7.87862889  9.02451617
   9.64422919  1.08152974  8.60692470
   7.78012812  4.42580544  8.60738673
   5.78013196  7.88991323  8.60739039
  -0.02598362  2.22828961 10.70494738
  -1.93372945  5.62044518 10.68274509
  -3.87041976  8.97489953 10.68273955
   3.95762630  2.24611049 10.57549878
   1.98124360  5.66932492 10.57549664
   0.19526158  9.08597278 10.60266287
   7.55828889  2.10262685 10.65056496
   5.85579320  5.62418792 10.65053645
   3.65722943  8.85933270 10.65060996
   2.00172023  1.14013901 11.22285557
   0.04549583  4.52841832 11.22285361
  -1.82151341  7.92153287 11.18527181
   3.90571750  4.49828288 11.20537755
   9.60466139  1.05869851 11.16881172
   7.75846146  4.41239577 11.17603200
   5.75768127  7.87784823 11.17602139
  -0.02514409  2.22878205  8.14993179
  -1.94029963  5.62011378  8.11772838
  -3.87399331  8.96937953  8.11772786
   3.94600064  2.21242650  8.09044379
   1.94623623  5.67611269  8.09045515
   0.07240473  9.01501065  8.06492168
   7.70030519  2.19977422  8.01719887
   5.85166731  5.62180729  8.07269189
   3.81242331  8.93377981  8.01717052
 


--------------------------------------------------------------------------------------------------------


 k-point   1 :   0.0000 0.0000 0.0000  plane waves:   74803
 k-point   2 :   0.2000-0.0000 0.0000  plane waves:   74695
 k-point   3 :   0.2000-0.2000 0.0000  plane waves:   74695
 k-point   4 :   0.0000-0.2000 0.0000  plane waves:   74695
 k-point   5 :   0.4000-0.0000 0.0000  plane waves:   74663
 k-point   6 :   0.4000-0.4000 0.0000  plane waves:   74659
 k-point   7 :   0.0000-0.4000 0.0000  plane waves:   74659
 k-point   8 :   0.2000 0.2000 0.0000  plane waves:   74689
 k-point   9 :   0.4000-0.2000 0.0000  plane waves:   74689
 k-point  10 :   0.2000-0.4000 0.0000  plane waves:   74689
 k-point  11 :   0.4000 0.2000 0.0000  plane waves:   74676
 k-point  12 :  -0.4000-0.4000 0.0000  plane waves:   74676
 k-point  13 :   0.2000 0.4000 0.0000  plane waves:   74676

 maximum and minimum number of plane-waves per node :      4719     4612

 maximum number of plane-waves:     74803
 maximum index in each direction: 
   IXMAX=   21   IYMAX=   21   IZMAX=   45
   IXMIN=  -21   IYMIN=  -21   IZMIN=  -45


 parallel 3D FFT for wavefunctions:
    minimum data exchange during FFTs selected (reduces bandwidth)
 parallel 3D FFT for charge:
    minimum data exchange during FFTs selected (reduces bandwidth)


 total amount of memory used by VASP MPI-rank0   329586. kBytes
=======================================================================

   base      :      30000. kBytes
   nonl-proj :      39950. kBytes
   fftplans  :      62656. kBytes
   grid      :      34136. kBytes
   one-center:         62. kBytes
   wavefun   :     162782. kBytes
 
     INWAV:  cpu time    0.0000: real time    0.0000
 Broyden mixing: mesh for mixing (old mesh)
   NGX = 43   NGY = 43   NGZ = 91
  (NGX  =180   NGY  =180   NGZ  =384)
  gives a total of 168259 points

 initial charge density was supplied:
 charge density of overlapping atoms calculated
 number of electron     546.0000000 magnetization 
 keeping initial charge density in first step


--------------------------------------------------------------------------------------------------------


 Maximum index for augmentation-charges         7684 (set IRDMAX)


--------------------------------------------------------------------------------------------------------


 First call to EWALD:  gamma=   0.124
 Maximum number of real-space cells 4x 4x 2
 Maximum number of reciprocal cells 2x 2x 4

    FEWALD:  cpu time    0.0718: real time    0.0720


--------------------------------------- Iteration      1(   1)  ---------------------------------------


    POTLOK:  cpu time    0.5581: real time    0.5615
    SETDIJ:  cpu time    1.2632: real time    1.2663
     EDDAV:  cpu time  103.7307: real time  103.9816
       DOS:  cpu time    0.0513: real time    0.0514
    --------------------------------------------
      LOOP:  cpu time  105.6033: real time  105.8608

 eigenvalue-minimisations  :  8632
 total energy-change (2. order) : 0.4471836E+04  (-0.2253599E+05)
 number of electron     546.0000000 magnetization 
 augmentation part      546.0000000 magnetization 

 Free energy of the ion-electron system (eV)
  ---------------------------------------------------
  alpha Z        PSCENC =       926.05824579
  Ewald energy   TEWEN  =    113110.36299281
  -Hartree energ DENC   =   -163480.80612338
  -exchange      EXHF   =         0.00000000
  -V(xc)+E(xc)   XCENC  =      1628.23491930
  PAW double counting   =     46299.00537307   -49142.15152337
  entropy T*S    EENTRO =        -0.02157231
  eigenvalues    EBANDS =       209.45952910
  atomic energy  EATOM  =     54921.69393056
  Solvation  Ediel_sol  =         0.00000000
  ---------------------------------------------------
  free energy    TOTEN  =      4471.83577158 eV

  energy without entropy =     4471.85734389  energy(sigma->0) =     4471.84655774


--------------------------------------------------------------------------------------------------------




--------------------------------------- Iteration      1(   2)  ---------------------------------------


     EDDAV:  cpu time  113.5193: real time  113.7927
       DOS:  cpu time    0.0715: real time    0.0716
    --------------------------------------------
      LOOP:  cpu time  113.5908: real time  113.8643

 eigenvalue-minimisations  :  9776
 total energy-change (2. order) :-0.3970934E+04  (-0.3789648E+04)
 number of electron     546.0000000 magnetization 
 augmentation part      546.0000000 magnetization 

 Free energy of the ion-electron system (eV)
  ---------------------------------------------------
  alpha Z        PSCENC =       926.05824579
  Ewald energy   TEWEN  =    113110.36299281
  -Hartree energ DENC   =   -163480.80612338
  -exchange      EXHF   =         0.00000000
  -V(xc)+E(xc)   XCENC  =      1628.23491930
  PAW double counting   =     46299.00537307   -49142.15152337
  entropy T*S    EENTRO =        -0.00000000
  eigenvalues    EBANDS =     -3761.49627656
  atomic energy  EATOM  =     54921.69393056
  Solvation  Ediel_sol  =         0.00000000
  ---------------------------------------------------
  free energy    TOTEN  =       500.90153823 eV

  energy without entropy =      500.90153823  energy(sigma->0) =      500.90153823


--------------------------------------------------------------------------------------------------------




--------------------------------------- Iteration      1(   3)  ---------------------------------------


     EDDAV:  cpu time  116.4022: real time  116.6837
       DOS:  cpu time    0.0215: real time    0.0216
    --------------------------------------------
      LOOP:  cpu time  116.4237: real time  116.7052

 eigenvalue-minimisations  :  9808
 total energy-change (2. order) :-0.6530513E+03  (-0.6471142E+03)
 number of electron     546.0000000 magnetization 
 augmentation part      546.0000000 magnetization 

 Free energy of the ion-electron system (eV)
  ---------------------------------------------------
  alpha Z        PSCENC =       926.05824579
  Ewald energy   TEWEN  =    113110.36299281
  -Hartree energ DENC   =   -163480.80612338
  -exchange      EXHF   =         0.00000000
  -V(xc)+E(xc)   XCENC  =      1628.23491930
  PAW double counting   =     46299.00537307   -49142.15152337
  entropy T*S    EENTRO =        -0.00000000
  eigenvalues    EBANDS =     -4414.54753660
  atomic energy  EATOM  =     54921.69393056
  Solvation  Ediel_sol  =         0.00000000
  ---------------------------------------------------
  free energy    TOTEN  =      -152.14972182 eV

  energy without entropy =     -152.14972182  energy(sigma->0) =     -152.14972182


--------------------------------------------------------------------------------------------------------




--------------------------------------- Iteration      1(   4)  ---------------------------------------


     EDDAV:  cpu time  106.2289: real time  106.4880
       DOS:  cpu time    0.0363: real time    0.0364
    --------------------------------------------
      LOOP:  cpu time  106.2652: real time  106.5244

 eigenvalue-minimisations  :  9640
 total energy-change (2. order) :-0.3469517E+02  (-0.3443968E+02)
 number of electron     546.0000000 magnetization 
 augmentation part      546.0000000 magnetization 

 Free energy of the ion-electron system (eV)
  ---------------------------------------------------
  alpha Z        PSCENC =       926.05824579
  Ewald energy   TEWEN  =    113110.36299281
  -Hartree energ DENC   =   -163480.80612338
  -exchange      EXHF   =         0.00000000
  -V(xc)+E(xc)   XCENC  =      1628.23491930
  PAW double counting   =     46299.00537307   -49142.15152337
  entropy T*S    EENTRO =        -0.00000000
  eigenvalues    EBANDS =     -4449.24270183
  atomic energy  EATOM  =     54921.69393056
  Solvation  Ediel_sol  =         0.00000000
  ---------------------------------------------------
  free energy    TOTEN  =      -186.84488704 eV

  energy without entropy =     -186.84488704  energy(sigma->0) =     -186.84488704


--------------------------------------------------------------------------------------------------------




--------------------------------------- Iteration      1(   5)  ---------------------------------------


     EDDAV:  cpu time  114.2291: real time  114.5043
       DOS:  cpu time    0.0343: real time    0.0344
    CHARGE:  cpu time    4.1919: real time    4.2020
    MIXING:  cpu time    0.0261: real time    0.0262
    --------------------------------------------
      LOOP:  cpu time  118.4813: real time  118.7669

 eigenvalue-minimisations  : 10000
 total energy-change (2. order) :-0.1012948E+01  (-0.1011709E+01)
 number of electron     546.0000010 magnetization 
 augmentation part      164.5343638 magnetization 

 Broyden mixing:
  rms(total) = 0.36143E+01    rms(broyden)= 0.36142E+01
  rms(prec ) = 0.36956E+01
  weight for this iteration     100.00

 Free energy of the ion-electron system (eV)
  ---------------------------------------------------
  alpha Z        PSCENC =       926.05824579
  Ewald energy   TEWEN  =    113110.36299281
  -Hartree energ DENC   =   -163480.80612338
  -exchange      EXHF   =         0.00000000
  -V(xc)+E(xc)   XCENC  =      1628.23491930
  PAW double counting   =     46299.00537307   -49142.15152337
  entropy T*S    EENTRO =        -0.00000000
  eigenvalues    EBANDS =     -4450.25564954
  atomic energy  EATOM  =     54921.69393056
  Solvation  Ediel_sol  =         0.00000000
  ---------------------------------------------------
  free energy    TOTEN  =      -187.85783475 eV

  energy without entropy =     -187.85783475  energy(sigma->0) =     -187.85783475


--------------------------------------------------------------------------------------------------------




--------------------------------------- Iteration      1(   6)  ---------------------------------------


    POTLOK:  cpu time    0.4065: real time    0.4097
    SETDIJ:  cpu time    0.5416: real time    0.5429
     EDDAV:  cpu time  131.4746: real time  131.7915
       DOS:  cpu time    0.0107: real time    0.0107
    CHARGE:  cpu time    4.0577: real time    4.0674
    MIXING:  cpu time    0.0222: real time    0.0223
    --------------------------------------------
      LOOP:  cpu time  136.5133: real time  136.8445

 eigenvalue-minimisations  : 12136
 total energy-change (2. order) : 0.1443548E+02  (-0.2793992E+01)
 number of electron     546.0000010 magnetization 
 augmentation part      167.0077486 magnetization 

 Broyden mixing:
  rms(total) = 0.29042E+01    rms(broyden)= 0.29042E+01
  rms(prec ) = 0.29193E+01
  weight for this iteration     100.00

 eigenvalues of (default mixing * dielectric matrix)
  average eigenvalue GAMMA=   2.1488
  2.1488

 Free energy of the ion-electron system (eV)
  ---------------------------------------------------
  alpha Z        PSCENC =       926.05824579
  Ewald energy   TEWEN  =    113110.36299281
  -Hartree energ DENC   =   -163291.89400141
  -exchange      EXHF   =         0.00000000
  -V(xc)+E(xc)   XCENC  =      1631.78085751
  PAW double counting   =     49351.82213244   -52138.39912377
  entropy T*S    EENTRO =        -0.00000000
  eigenvalues    EBANDS =     -4684.84738716
  atomic energy  EATOM  =     54921.69393056
  Solvation  Ediel_sol  =         0.00000000
  ---------------------------------------------------
  free energy    TOTEN  =      -173.42235323 eV

  energy without entropy =     -173.42235323  energy(sigma->0) =     -173.42235323


--------------------------------------------------------------------------------------------------------




--------------------------------------- Iteration      1(   7)  ---------------------------------------


    POTLOK:  cpu time    0.3742: real time    0.3776
    SETDIJ:  cpu time    0.5299: real time    0.5372
     EDDAV:  cpu time  111.6226: real time  111.9069
       DOS:  cpu time    0.0175: real time    0.0175
    CHARGE:  cpu time    4.5036: real time    4.5149
    MIXING:  cpu time    0.0105: real time    0.0106
    --------------------------------------------
      LOOP:  cpu time  117.0583: real time  117.3647

 eigenvalue-minimisations  :  9400
 total energy-change (2. order) :-0.6583183E+00  (-0.3321484E+01)
 number of electron     546.0000010 magnetization 
 augmentation part      167.6493414 magnetization 

 Broyden mixing:
  rms(total) = 0.11647E+01    rms(broyden)= 0.11647E+01
  rms(prec ) = 0.11785E+01
  weight for this iteration     100.00

 eigenvalues of (default mixing * dielectric matrix)
  average eigenvalue GAMMA=   1.7236
  1.1154  2.3319

 Free energy of the ion-electron system (eV)
  ---------------------------------------------------
  alpha Z        PSCENC =       926.05824579
  Ewald energy   TEWEN  =    113110.36299281
  -Hartree energ DENC   =   -163302.04214487
  -exchange      EXHF   =         0.00000000
  -V(xc)+E(xc)   XCENC  =      1639.59699708
  PAW double counting   =     54995.38052502   -57825.67770494
  entropy T*S    EENTRO =        -0.00000000
  eigenvalues    EBANDS =     -4639.45351295
  atomic energy  EATOM  =     54921.69393056
  Solvation  Ediel_sol  =         0.00000000
  ---------------------------------------------------
  free energy    TOTEN  =      -174.08067149 eV

  energy without entropy =     -174.08067149  energy(sigma->0) =     -174.08067149


--------------------------------------------------------------------------------------------------------




--------------------------------------- Iteration      1(   8)  ---------------------------------------


    POTLOK:  cpu time    0.4224: real time    0.4235
    SETDIJ:  cpu time    0.5567: real time    0.5611
     EDDAV:  cpu time  118.4564: real time  118.7429
       DOS:  cpu time    0.0277: real time    0.0278
    CHARGE:  cpu time    3.4195: real time    3.4278
    MIXING:  cpu time    0.0191: real time    0.0192
    --------------------------------------------
      LOOP:  cpu time  122.9019: real time  123.2021

 eigenvalue-minimisations  : 10688
 total energy-change (2. order) : 0.6371145E+00  (-0.4457409E+00)
 number of electron     546.0000010 magnetization 
 augmentation part      167.1058211 magnetization 

 Broyden mixing:
  rms(total) = 0.28334E+00    rms(broyden)= 0.28333E+00
  rms(prec ) = 0.28734E+00
  weight for this iteration     100.00

 eigenvalues of (default mixing * dielectric matrix)
  average eigenvalue GAMMA=   1.4726
  2.2834  1.0672  1.0672

 Free energy of the ion-electron system (eV)
  ---------------------------------------------------
  alpha Z        PSCENC =       926.05824579
  Ewald energy   TEWEN  =    113110.36299281
  -Hartree energ DENC   =   -163297.82351366
  -exchange      EXHF   =         0.00000000
  -V(xc)+E(xc)   XCENC  =      1637.44607401
  PAW double counting   =     56864.71471975   -59703.82437767
  entropy T*S    EENTRO =        -0.00000000
  eigenvalues    EBANDS =     -4632.07162857
  atomic energy  EATOM  =     54921.69393056
  Solvation  Ediel_sol  =         0.00000000
  ---------------------------------------------------
  free energy    TOTEN  =      -173.44355698 eV

  energy without entropy =     -173.44355698  energy(sigma->0) =     -173.44355698


--------------------------------------------------------------------------------------------------------




--------------------------------------- Iteration      1(   9)  ---------------------------------------


    POTLOK:  cpu time    0.3550: real time    0.3597
    SETDIJ:  cpu time    0.5331: real time    0.5379
     EDDAV:  cpu time  122.4498: real time  122.7454
       DOS:  cpu time    0.0219: real time    0.0220
    CHARGE:  cpu time    4.5516: real time    4.5627
    MIXING:  cpu time    0.0227: real time    0.0227
    --------------------------------------------
      LOOP:  cpu time  127.9341: real time  128.2503

 eigenvalue-minimisations  : 10776
 total energy-change (2. order) : 0.3921252E-02  (-0.5412362E-01)
 number of electron     546.0000010 magnetization 
 augmentation part      167.1158027 magnetization 

 Broyden mixing:
  rms(total) = 0.10036E+00    rms(broyden)= 0.10036E+00
  rms(prec ) = 0.10290E+00
  weight for this iteration     100.00

 eigenvalues of (default mixing * dielectric matrix)
  average eigenvalue GAMMA=   1.3787
  2.3133  1.1455  1.1455  0.9106

 Free energy of the ion-electron system (eV)
  ---------------------------------------------------
  alpha Z        PSCENC =       926.05824579
  Ewald energy   TEWEN  =    113110.36299281
  -Hartree energ DENC   =   -163275.31496678
  -exchange      EXHF   =         0.00000000
  -V(xc)+E(xc)   XCENC  =      1636.97333311
  PAW double counting   =     57144.81810600   -59978.60623549
  entropy T*S    EENTRO =        -0.00000000
  eigenvalues    EBANDS =     -4659.42504173
  atomic energy  EATOM  =     54921.69393056
  Solvation  Ediel_sol  =         0.00000000
  ---------------------------------------------------
  free energy    TOTEN  =      -173.43963572 eV

  energy without entropy =     -173.43963572  energy(sigma->0) =     -173.43963572


--------------------------------------------------------------------------------------------------------




--------------------------------------- Iteration      1(  10)  ---------------------------------------


    POTLOK:  cpu time    0.4418: real time    0.4457
    SETDIJ:  cpu time    0.5257: real time    0.5326
     EDDAV:  cpu time  110.2511: real time  110.5186
       DOS:  cpu time    0.0289: real time    0.0290
    CHARGE:  cpu time    4.0913: real time    4.1011
    MIXING:  cpu time    0.0191: real time    0.0191
    --------------------------------------------
      LOOP:  cpu time  115.3579: real time  115.6461

 eigenvalue-minimisations  : 10056
 total energy-change (2. order) :-0.5687630E-02  (-0.9918442E-02)
 number of electron     546.0000010 magnetization 
 augmentation part      167.1641902 magnetization 

 Broyden mixing:
  rms(total) = 0.71460E-01    rms(broyden)= 0.71459E-01
  rms(prec ) = 0.72881E-01
  weight for this iteration     100.00

 eigenvalues of (default mixing * dielectric matrix)
  average eigenvalue GAMMA=   1.2985
  2.1212  1.4860  1.0559  1.0559  0.7736

 Free energy of the ion-electron system (eV)
  ---------------------------------------------------
  alpha Z        PSCENC =       926.05824579
  Ewald energy   TEWEN  =    113110.36299281
  -Hartree energ DENC   =   -163266.10075330
  -exchange      EXHF   =         0.00000000
  -V(xc)+E(xc)   XCENC  =      1636.77004740
  PAW double counting   =     57218.08188036   -60049.58925691
  entropy T*S    EENTRO =        -0.00000000
  eigenvalues    EBANDS =     -4670.72241007
  atomic energy  EATOM  =     54921.69393056
  Solvation  Ediel_sol  =         0.00000000
  ---------------------------------------------------
  free energy    TOTEN  =      -173.44532335 eV

  energy without entropy =     -173.44532335  energy(sigma->0) =     -173.44532335


--------------------------------------------------------------------------------------------------------




--------------------------------------- Iteration      1(  11)  ---------------------------------------


    POTLOK:  cpu time    0.3718: real time    0.3727
    SETDIJ:  cpu time    0.5356: real time    0.5437
     EDDAV:  cpu time  115.3182: real time  115.5980
       DOS:  cpu time    0.0319: real time    0.0320
    CHARGE:  cpu time    4.2416: real time    4.2518
    MIXING:  cpu time    0.0097: real time    0.0097
    --------------------------------------------
      LOOP:  cpu time  120.5088: real time  120.8078

 eigenvalue-minimisations  : 10824
 total energy-change (2. order) :-0.2579451E-02  (-0.1938795E-02)
 number of electron     546.0000010 magnetization 
 augmentation part      167.1507435 magnetization 

 Broyden mixing:
  rms(total) = 0.50413E-01    rms(broyden)= 0.50413E-01
  rms(prec ) = 0.51805E-01
  weight for this iteration     100.00

 eigenvalues of (default mixing * dielectric matrix)
  average eigenvalue GAMMA=   1.3358
  1.8994  1.8994  1.2332  1.2332  1.0237  0.7261

 Free energy of the ion-electron system (eV)
  ---------------------------------------------------
  alpha Z        PSCENC =       926.05824579
  Ewald energy   TEWEN  =    113110.36299281
  -Hartree energ DENC   =   -163265.55529981
  -exchange      EXHF   =         0.00000000
  -V(xc)+E(xc)   XCENC  =      1636.71081268
  PAW double counting   =     57148.50532696   -59980.01959840
  entropy T*S    EENTRO =        -0.00000000
  eigenvalues    EBANDS =     -4671.20431340
  atomic energy  EATOM  =     54921.69393056
  Solvation  Ediel_sol  =         0.00000000
  ---------------------------------------------------
  free energy    TOTEN  =      -173.44790280 eV

  energy without entropy =     -173.44790280  energy(sigma->0) =     -173.44790280


--------------------------------------------------------------------------------------------------------




--------------------------------------- Iteration      1(  12)  ---------------------------------------


    POTLOK:  cpu time    0.3541: real time    0.3550
    SETDIJ:  cpu time    0.5343: real time    0.5399
     EDDAV:  cpu time  119.3694: real time  119.6568
       DOS:  cpu time    0.0535: real time    0.0536
    CHARGE:  cpu time    4.7754: real time    4.7870
    MIXING:  cpu time    0.0271: real time    0.0271
    --------------------------------------------
      LOOP:  cpu time  125.1139: real time  125.4194

 eigenvalue-minimisations  : 10720
 total energy-change (2. order) :-0.1510497E-02  (-0.4763822E-03)
 number of electron     546.0000010 magnetization 
 augmentation part      167.1534799 magnetization 

 Broyden mixing:
  rms(total) = 0.23876E-01    rms(broyden)= 0.23876E-01
  rms(prec ) = 0.25345E-01
  weight for this iteration     100.00

 eigenvalues of (default mixing * dielectric matrix)
  average eigenvalue GAMMA=   1.4408
  2.4557  2.1312  1.7307  1.1137  1.1137  0.8860  0.6546

 Free energy of the ion-electron system (eV)
  ---------------------------------------------------
  alpha Z        PSCENC =       926.05824579
  Ewald energy   TEWEN  =    113110.36299281
  -Hartree energ DENC   =   -163263.62983112
  -exchange      EXHF   =         0.00000000
  -V(xc)+E(xc)   XCENC  =      1636.72232596
  PAW double counting   =     57110.60497220   -59941.90852169
  entropy T*S    EENTRO =        -0.00000000
  eigenvalues    EBANDS =     -4673.35352782
  atomic energy  EATOM  =     54921.69393056
  Solvation  Ediel_sol  =         0.00000000
  ---------------------------------------------------
  free energy    TOTEN  =      -173.44941330 eV

  energy without entropy =     -173.44941330  energy(sigma->0) =     -173.44941330


--------------------------------------------------------------------------------------------------------




--------------------------------------- Iteration      1(  13)  ---------------------------------------


    POTLOK:  cpu time    0.3764: real time    0.3783
    SETDIJ:  cpu time    0.5411: real time    0.5451
     EDDAV:  cpu time  116.7663: real time  117.0474
       DOS:  cpu time    0.0223: real time    0.0223
    CHARGE:  cpu time    4.1395: real time    4.1495
    MIXING:  cpu time    0.0227: real time    0.0227
    --------------------------------------------
      LOOP:  cpu time  121.8683: real time  122.1653

 eigenvalue-minimisations  : 10408
 total energy-change (2. order) :-0.1382072E-02  (-0.3538446E-03)
 number of electron     546.0000010 magnetization 
 augmentation part      167.1580807 magnetization 

 Broyden mixing:
  rms(total) = 0.82113E-02    rms(broyden)= 0.82110E-02
  rms(prec ) = 0.94100E-02
  weight for this iteration     100.00

 eigenvalues of (default mixing * dielectric matrix)
  average eigenvalue GAMMA=   1.3913
  2.3859  2.3859  1.5957  1.0663  1.0663  0.9811  0.9811  0.6680

 Free energy of the ion-electron system (eV)
  ---------------------------------------------------
  alpha Z        PSCENC =       926.05824579
  Ewald energy   TEWEN  =    113110.36299281
  -Hartree energ DENC   =   -163260.47384860
  -exchange      EXHF   =         0.00000000
  -V(xc)+E(xc)   XCENC  =      1636.73663630
  PAW double counting   =     57127.42972994   -59958.55157676
  entropy T*S    EENTRO =        -0.00000000
  eigenvalues    EBANDS =     -4676.70690541
  atomic energy  EATOM  =     54921.69393056
  Solvation  Ediel_sol  =         0.00000000
  ---------------------------------------------------
  free energy    TOTEN  =      -173.45079537 eV

  energy without entropy =     -173.45079537  energy(sigma->0) =     -173.45079537


--------------------------------------------------------------------------------------------------------




--------------------------------------- Iteration      1(  14)  ---------------------------------------


    POTLOK:  cpu time    0.4046: real time    0.4056
    SETDIJ:  cpu time    0.5533: real time    0.5576
     EDDAV:  cpu time  109.1825: real time  109.4454
       DOS:  cpu time    0.0550: real time    0.0551
    CHARGE:  cpu time    4.1732: real time    4.1833
    MIXING:  cpu time    0.0126: real time    0.0127
    --------------------------------------------
      LOOP:  cpu time  114.3813: real time  114.6596

 eigenvalue-minimisations  :  9736
 total energy-change (2. order) :-0.7617142E-03  (-0.2449088E-03)
 number of electron     546.0000010 magnetization 
 augmentation part      167.1559593 magnetization 

 Broyden mixing:
  rms(total) = 0.77084E-02    rms(broyden)= 0.77080E-02
  rms(prec ) = 0.84982E-02
  weight for this iteration     100.00

 eigenvalues of (default mixing * dielectric matrix)
  average eigenvalue GAMMA=   1.3646
  2.7946  2.4316  1.4226  1.4226  1.0583  1.0583  0.9573  0.6603  0.4760

 Free energy of the ion-electron system (eV)
  ---------------------------------------------------
  alpha Z        PSCENC =       926.05824579
  Ewald energy   TEWEN  =    113110.36299281
[...]
  E(xc)   -2677.00813 -2677.17557 -2683.14624     0.14510     0.04789     0.08285
  Local  ************************300066.63794   -66.36475   -67.26920  -116.44289
  n-local  1259.47292  1259.39097  1236.97842     0.07106     0.08243     0.14326
  augment   378.70909   378.37605   377.96863     0.29044    -0.05640    -0.09819
  Kinetic  5966.35011  5969.33663  6110.56553    -2.58974    -0.55306    -0.95564
  Fock        0.00000     0.00000     0.00000     0.00000     0.00000     0.00000
  vdW       -11.97058   -12.05175    -6.27789     0.07021    -0.00944    -0.01633
  -------------------------------------------------------------------------------------
  Total     -14.18477   -12.80710    -1.14528    -1.19601     0.02853     0.04931
  in kB      -7.72555    -6.97522    -0.62376    -0.65139     0.01554     0.02686
  external pressure =       -5.11 kB  Pullay stress =        0.00 kB


 VOLUME and BASIS-vectors are now :
 -----------------------------------------------------------------------------
  energy-cutoff  :      500.00
  volume of cell :     2941.74
      direct lattice vectors                 reciprocal lattice vectors
    11.656400000  0.000000000  0.000000000     0.085789781  0.049530553  0.000000000
    -5.828232380 10.094835290  0.000000000     0.000000000  0.099060556  0.000000000
     0.000000000  0.000000000 25.000000000     0.000000000  0.000000000  0.040000000

  length of vectors
    11.656400000 11.656499998 25.000000000     0.099061406  0.099060556  0.040000000


 FORCES acting on ions
    electron-ion (+dipol)            ewald-force                    non-local-force                 convergence-correction
 -----------------------------------------------------------------------------------------------
   -.960E+01 0.342E+00 -.146E+04   0.946E+01 -.251E+00 0.146E+04   0.150E+00 -.901E-01 -.159E+00   0.187E-06 -.631E-08 0.577E-06
   -.395E+01 -.228E+01 -.146E+04   0.385E+01 0.222E+01 0.146E+04   0.111E+00 0.641E-01 -.276E+00   0.480E-07 0.338E-07 0.345E-06
   -.450E+01 -.849E+01 -.146E+04   0.451E+01 0.832E+01 0.146E+04   -.313E-02 0.175E+00 -.159E+00   0.899E-07 0.161E-06 0.571E-06
   0.581E+01 0.335E+01 -.148E+04   -.581E+01 -.335E+01 0.148E+04   -.529E-02 -.307E-02 -.445E-01   -.666E-07 -.363E-07 0.787E-06
   0.154E+01 0.696E+01 -.148E+04   -.152E+01 -.693E+01 0.148E+04   -.179E-01 -.310E-01 0.718E-02   0.124E-07 -.148E-06 0.715E-06
   0.679E+01 -.215E+01 -.148E+04   -.676E+01 0.215E+01 0.148E+04   -.358E-01 -.170E-04 0.719E-02   -.123E-06 0.817E-07 0.707E-06
   0.330E+01 0.880E+00 -.148E+04   -.318E+01 -.842E+00 0.148E+04   -.125E+00 -.396E-01 -.118E+00   -.125E-06 -.117E-07 0.648E-06
   0.241E+01 0.242E+01 -.148E+04   -.232E+01 -.233E+01 0.148E+04   -.970E-01 -.887E-01 -.118E+00   -.711E-07 -.102E-06 0.650E-06
   -.255E+01 -.147E+01 -.149E+04   0.250E+01 0.144E+01 0.149E+04   0.477E-01 0.275E-01 0.655E-01   0.291E-07 0.167E-07 0.830E-06
   -.900E+00 -.148E+01 -.134E+04   0.898E+00 0.152E+01 0.134E+04   0.300E-02 -.437E-01 -.298E+01   0.695E-09 -.636E-07 -.986E-06
   -.173E+01 -.416E-01 -.134E+04   0.177E+01 0.173E-01 0.134E+04   -.363E-01 0.244E-01 -.298E+01   -.565E-07 0.337E-07 -.974E-06
   -.212E+01 -.122E+01 -.134E+04   0.213E+01 0.123E+01 0.134E+04   -.159E-01 -.924E-02 -.301E+01   0.469E-09 0.218E-08 -.487E-06
   0.210E+01 0.147E+01 -.134E+04   -.217E+01 -.148E+01 0.134E+04   0.620E-01 0.799E-02 -.301E+01   0.814E-07 -.383E-07 -.451E-06
   0.342E+01 0.197E+01 -.134E+04   -.351E+01 -.203E+01 0.134E+04   0.888E-01 0.512E-01 -.302E+01   0.628E-07 0.322E-07 -.672E-06
   0.233E+01 0.108E+01 -.134E+04   -.237E+01 -.113E+01 0.134E+04   0.380E-01 0.496E-01 -.301E+01   0.352E-08 0.898E-07 -.455E-06
   -.149E+01 -.859E+00 -.134E+04   0.157E+01 0.906E+00 0.134E+04   -.781E-01 -.451E-01 -.301E+01   -.698E-07 -.397E-07 -.438E-06
   -.160E+01 0.743E+00 -.134E+04   0.165E+01 -.750E+00 0.135E+04   -.446E-01 0.778E-02 -.300E+01   -.688E-08 -.493E-08 -.567E-06
   -.156E+00 -.176E+01 -.134E+04   0.173E+00 0.180E+01 0.135E+04   -.155E-01 -.426E-01 -.300E+01   -.319E-08 -.325E-08 -.570E-06
   0.237E+01 0.137E+01 -.393E+03   -.241E+01 -.139E+01 0.390E+03   0.484E-01 0.280E-01 0.310E+01   -.242E-07 -.154E-07 -.114E-06
   -.168E+01 -.398E+01 -.393E+03   0.163E+01 0.401E+01 0.390E+03   0.556E-01 -.260E-01 0.313E+01   -.142E-07 0.177E-07 0.612E-07
   -.429E+01 0.535E+00 -.393E+03   0.428E+01 -.594E+00 0.390E+03   0.526E-02 0.612E-01 0.313E+01   0.329E-08 -.226E-07 0.810E-07
   -.118E+02 0.551E+01 -.377E+03   0.118E+02 -.546E+01 0.373E+03   -.302E-01 -.573E-01 0.307E+01   0.415E-07 0.305E-07 -.162E-06
   -.111E+01 -.129E+02 -.377E+03   0.118E+01 0.129E+02 0.373E+03   -.647E-01 0.256E-02 0.307E+01   0.458E-07 0.195E-07 -.178E-06
   -.740E+01 -.427E+01 -.363E+03   0.737E+01 0.425E+01 0.361E+03   0.317E-01 0.183E-01 0.289E+01   0.340E-07 0.135E-07 -.264E-06
   0.868E+01 0.862E+01 -.382E+03   -.865E+01 -.862E+01 0.379E+03   -.251E-01 -.280E-02 0.303E+01   -.337E-07 -.280E-07 0.960E-07
   0.315E+01 0.182E+01 -.396E+03   -.317E+01 -.183E+01 0.392E+03   0.160E-01 0.924E-02 0.317E+01   -.274E-07 -.130E-07 0.141E-06
   0.118E+02 0.320E+01 -.382E+03   -.118E+02 -.319E+01 0.379E+03   -.150E-01 -.202E-01 0.303E+01   -.371E-07 -.169E-07 0.877E-07
   0.617E+01 -.281E+01 0.190E+04   -.629E+01 0.239E+01 -.190E+04   0.112E+00 0.417E+00 0.175E+01   0.121E-06 0.330E-06 0.226E-05
   0.654E+00 0.675E+01 0.190E+04   -.107E+01 -.664E+01 -.190E+04   0.417E+00 -.112E+00 0.175E+01   0.421E-06 -.105E-07 0.229E-05
   -.110E+01 -.631E+00 0.189E+04   0.191E+01 0.110E+01 -.189E+04   -.789E+00 -.455E+00 0.144E+01   -.142E-06 -.891E-07 0.299E-05
   0.436E+02 0.741E+01 0.162E+04   -.427E+02 -.769E+01 -.162E+04   -.926E+00 0.270E+00 -.180E+01   -.533E-06 0.212E-06 0.233E-05
   0.112E+02 0.646E+01 0.194E+04   -.105E+02 -.608E+01 -.194E+04   -.664E+00 -.383E+00 0.181E+01   -.102E-05 -.531E-06 0.296E-05
   0.282E+02 0.341E+02 0.162E+04   -.280E+02 -.331E+02 -.162E+04   -.229E+00 -.938E+00 -.180E+01   -.595E-07 -.625E-06 0.227E-05
   -.270E+02 -.156E+02 0.189E+04   0.260E+02 0.150E+02 -.189E+04   0.102E+01 0.586E+00 0.154E+01   0.601E-06 0.320E-06 0.273E-05
   -.190E+02 -.388E+01 0.189E+04   0.188E+02 0.294E+01 -.190E+04   0.123E+00 0.933E+00 0.159E+01   0.591E-06 0.713E-07 0.304E-05
   -.128E+02 -.145E+02 0.189E+04   0.120E+02 0.148E+02 -.190E+04   0.870E+00 -.361E+00 0.159E+01   0.308E-06 0.498E-06 0.299E-05
   0.173E+02 0.999E+01 0.258E+03   -.168E+02 -.972E+01 -.257E+03   -.468E+00 -.270E+00 -.528E+00   -.424E-06 -.280E-06 -.323E-05
   0.718E+01 -.898E+01 0.267E+03   -.636E+01 0.873E+01 -.266E+03   -.809E+00 0.251E+00 -.934E+00   0.268E-06 0.418E-06 -.351E-05
   -.418E+01 0.107E+02 0.267E+03   0.437E+01 -.987E+01 -.266E+03   -.187E+00 -.826E+00 -.934E+00   0.481E-06 0.314E-07 -.351E-05
   -.506E+02 0.394E+02 0.258E+03   0.491E+02 -.386E+02 -.258E+03   0.149E+01 -.836E+00 0.399E-01   0.413E-07 0.271E-06 -.280E-05
   0.884E+01 -.635E+02 0.258E+03   -.885E+01 0.618E+02 -.258E+03   0.205E-01 0.171E+01 0.399E-01   0.274E-06 -.651E-07 -.285E-05
   -.778E+01 -.449E+01 0.159E+03   0.859E+01 0.496E+01 -.160E+03   -.779E+00 -.451E+00 0.862E+00   0.862E-07 -.148E-07 -.250E-05
   0.317E+02 0.470E+01 0.197E+03   -.319E+02 -.551E+01 -.197E+03   0.265E+00 0.773E+00 -.239E-02   0.428E-06 -.534E-06 -.329E-05
   -.662E+01 -.383E+01 0.285E+03   0.658E+01 0.380E+01 -.284E+03   0.373E-01 0.216E-01 -.154E+01   -.513E-06 -.302E-06 -.311E-05
   0.199E+02 0.251E+02 0.197E+03   -.207E+02 -.249E+02 -.197E+03   0.803E+00 -.157E+00 -.225E-02   -.305E-06 0.595E-06 -.332E-05
   -.103E+02 -.660E+01 -.949E+02   0.102E+02 0.655E+01 0.988E+02   0.125E+00 0.554E-01 -.390E+01   -.156E-06 -.243E-06 -.167E-05
   -.109E+02 -.564E+01 -.949E+02   0.108E+02 0.556E+01 0.988E+02   0.111E+00 0.808E-01 -.390E+01   -.321E-06 0.493E-07 -.166E-05
   -.271E+02 -.156E+02 -.868E+02   0.270E+02 0.156E+02 0.903E+02   0.107E+00 0.618E-01 -.360E+01   -.272E-06 -.232E-06 -.172E-05
   0.111E+02 0.644E+01 -.985E+02   -.110E+02 -.633E+01 0.103E+03   -.190E+00 -.110E+00 -.409E+01   0.420E-06 0.278E-06 -.135E-05
   -.776E+01 -.448E+01 -.824E+02   0.763E+01 0.440E+01 0.859E+02   0.123E+00 0.711E-01 -.351E+01   0.288E-06 0.169E-06 -.153E-05
   -.132E+02 0.175E+02 -.833E+02   0.133E+02 -.176E+02 0.869E+02   -.486E-01 0.122E+00 -.369E+01   -.105E-06 0.571E-06 -.213E-05
   0.853E+01 -.202E+02 -.833E+02   -.862E+01 0.203E+02 0.869E+02   0.817E-01 -.103E+00 -.369E+01   0.382E-06 -.413E-06 -.208E-05
   0.666E+01 0.384E+01 0.115E+04   -.692E+01 -.399E+01 -.116E+04   0.276E+00 0.159E+00 0.335E+01   -.124E-07 -.566E-07 0.204E-05
   0.627E+01 -.649E+01 0.117E+04   -.643E+01 0.661E+01 -.117E+04   0.153E+00 -.108E+00 0.358E+01   -.411E-06 -.205E-06 0.242E-05
   -.249E+01 0.868E+01 0.117E+04   0.250E+01 -.887E+01 -.117E+04   -.172E-01 0.187E+00 0.358E+01   -.337E-06 -.178E-06 0.236E-05
   -.155E+02 0.160E+02 0.120E+04   0.163E+02 -.166E+02 -.120E+04   -.750E+00 0.581E+00 0.457E+01   -.599E-06 -.493E-07 0.191E-05
   0.612E+01 -.214E+02 0.120E+04   -.625E+01 0.224E+02 -.120E+04   0.129E+00 -.940E+00 0.457E+01   -.305E-06 -.428E-06 0.195E-05
   -.792E+01 -.457E+01 0.122E+04   0.877E+01 0.506E+01 -.122E+04   -.843E+00 -.487E+00 0.512E+01   -.549E-06 -.361E-06 0.200E-05
   0.126E+02 0.505E+01 0.121E+04   -.134E+02 -.558E+01 -.122E+04   0.802E+00 0.528E+00 0.482E+01   0.644E-06 0.787E-06 0.214E-05
   -.122E+02 -.706E+01 0.118E+04   0.126E+02 0.726E+01 -.118E+04   -.337E+00 -.195E+00 0.373E+01   0.739E-06 0.378E-06 0.271E-05
   0.107E+02 0.837E+01 0.121E+04   -.115E+02 -.881E+01 -.122E+04   0.858E+00 0.430E+00 0.482E+01   0.922E-06 0.161E-06 0.214E-05
 -----------------------------------------------------------------------------------------------
   -.926E+00 -.534E+00 -.164E+02   0.339E-12 -.266E-13 -.364E-11   0.925E+00 0.534E+00 0.164E+02   0.928E-06 0.507E-06 0.325E-05
 
 
 POSITION                                       TOTAL-FORCE (eV/Angst)
 -----------------------------------------------------------------------------------
      3.88849      0.00130     15.67472         0.001470     -0.000372     -0.002006
      1.94490      3.36621     15.64709         0.001119      0.000643     -0.003610
      0.00262      6.73186     15.67472         0.000408      0.001465     -0.002006
      7.77306      0.00123     15.71643        -0.000029     -0.000014     -0.001704
      5.83010      3.36706     15.71222         0.001033      0.000119     -0.001611
      3.88823      6.73049     15.71223         0.000624      0.000833     -0.001612
      5.82858     10.09211     15.68023        -0.000904     -0.000040     -0.000941
      9.71150      3.36667     15.68023        -0.000490     -0.000765     -0.000940
      7.76986      6.72928     15.70903         0.000370      0.000218     -0.000537
      1.94600      1.13220     17.11632         0.001136      0.002075     -0.002121
      0.01075      4.48415     17.11632         0.002365     -0.000045     -0.002117
     -1.92697      7.86066     17.13010         0.001393      0.000806     -0.002854
      5.82035      1.11460     17.15071        -0.002425     -0.000376     -0.007318
      3.86859      4.47686     17.13817        -0.003014     -0.001734     -0.006713
      1.93268      7.84828     17.15071        -0.001540     -0.001914     -0.007310
      9.72089      1.12582     17.13909         0.002185      0.001258     -0.006046
      7.77983      4.48057     17.15456         0.002028      0.000532     -0.004755
      5.82741      7.86227     17.15456         0.001468      0.001489     -0.004751
     -0.00965      2.23773     14.24187        -0.000322     -0.000184     -0.002383
     -1.95139      5.61285     14.25867         0.000389     -0.000643     -0.001528
     -3.88583      8.96340     14.25867        -0.000361      0.000657     -0.001522
      3.91422      2.23863     14.23666         0.002924     -0.001449     -0.001614
      1.95305      5.63549     14.23666         0.000204      0.003251     -0.001613
      0.02775      8.98922     14.22533         0.004234      0.002445     -0.004005
      7.75308      2.23467     14.25752        -0.001492     -0.001669     -0.001373
      5.83162      5.61023     14.27972         0.000039      0.000017     -0.000309
      3.86904      8.96206     14.25752        -0.002193     -0.000462     -0.001368
      1.95416      1.12913      8.60694        -0.004235      0.000843      0.002175
      0.01217      4.49274      8.60696        -0.001328     -0.004120      0.002165
     -1.87196      7.89241      8.62185         0.004836      0.002813      0.005668
      5.84723      1.10043      9.02452         0.002122     -0.002585      0.006726
      3.89916      4.49452      8.54316        -0.000422     -0.000308      0.009684
      1.93385      7.87863      9.02452        -0.001172      0.003158      0.006720
      9.64423      1.08153      8.60692         0.000195      0.000134      0.010634
      7.78013      4.42581      8.60739         0.000534      0.001979      0.004128
      5.78013      7.88991      8.60739         0.001938     -0.000525      0.004125
     -0.02598      2.22829     10.70495         0.003077      0.001778      0.002573
     -1.93373      5.62045     10.68275        -0.001641      0.001071      0.011547
     -3.87042      8.97490     10.68274         0.000128     -0.001944      0.011538
      3.95763      2.24611     10.57550        -0.001611      0.000707     -0.001384
      1.98124      5.66932     10.57550        -0.000215     -0.001772     -0.001362
      0.19526      9.08597     10.60266         0.009817      0.005676     -0.006157
      7.55829      2.10263     10.65056        -0.007357     -0.008509     -0.000879
      5.85579      5.62419     10.65054         0.003767      0.002176      0.012961
      3.65723      8.85933     10.65061        -0.011047     -0.002115     -0.000880
      2.00172      1.14014     11.22286        -0.000067      0.002392     -0.004945
      0.04550      4.52842     11.22285         0.002074     -0.001244     -0.004951
     -1.82151      7.92153     11.18527         0.006427      0.003728     -0.008174
      3.90572      4.49828     11.20538        -0.009049     -0.005222      0.003976
      9.60466      1.05870     11.16881        -0.008586     -0.004962      0.003002
      7.75846      4.41240     11.17603         0.002664     -0.001305     -0.002127
      5.75768      7.87785     11.17602         0.000184      0.002935     -0.002130
     -0.02514      2.22878      8.14993         0.011648      0.006763      0.007286
     -1.94030      5.62011      8.11773        -0.008797      0.003333      0.004730
     -3.87399      8.96938      8.11773        -0.001473     -0.009249      0.004747
      3.94600      2.21243      8.09044         0.004826     -0.001872      0.002861
      1.94624      5.67611      8.09046         0.000725      0.005114      0.002840
      0.07240      9.01501      8.06492         0.002120      0.001213     -0.003697
      7.70031      2.19977      8.01720        -0.003274     -0.001805     -0.006620
      5.85167      5.62181      8.07269        -0.004254     -0.002453      0.004514
      3.81242      8.93378      8.01717        -0.003175     -0.001966     -0.006626
 -----------------------------------------------------------------------------------
    total drift:                               -0.000446     -0.000277      0.001036


--------------------------------------------------------------------------------------------------------



  FREE ENERGIE OF THE ION-ELECTRON SYSTEM (eV)
  ---------------------------------------------------
  free  energy   TOTEN  =      -183.55396816 eV

  energy  without entropy=     -183.55396816  energy(sigma->0) =     -183.55396816
 


--------------------------------------------------------------------------------------------------------


    POTLOK:  cpu time    0.9282: real time    0.9318


--------------------------------------------------------------------------------------------------------


 writing wavefunctions
     LOOP+:  cpu time 4247.8331: real time 4258.3711
    4ORBIT:  cpu time    0.0000: real time    0.0000
 


 total charge     
 
# of ion       s       p       d       tot
------------------------------------------
    1        0.324   0.226   9.618  10.168
    2        0.323   0.225   9.618  10.166
    3        0.324   0.226   9.618  10.168
    4        0.325   0.228   9.618  10.171
    5        0.325   0.227   9.618  10.170
    6        0.325   0.227   9.618  10.170
    7        0.324   0.226   9.618  10.168
    8        0.324   0.226   9.618  10.168
    9        0.325   0.227   9.618  10.170
   10        1.603   3.503   0.000   5.106
   11        1.603   3.503   0.000   5.106
   12        1.603   3.503   0.000   5.106
   13        1.603   3.503   0.000   5.106
   14        1.603   3.503   0.000   5.106
   15        1.603   3.503   0.000   5.106
   16        1.603   3.503   0.000   5.106
   17        1.603   3.503   0.000   5.106
   18        1.603   3.503   0.000   5.106
   19        1.605   3.504   0.000   5.108
   20        1.605   3.504   0.000   5.108
   21        1.605   3.504   0.000   5.108
   22        1.604   3.503   0.000   5.108
   23        1.604   3.503   0.000   5.108
   24        1.604   3.503   0.000   5.107
   25        1.604   3.504   0.000   5.108
   26        1.605   3.504   0.000   5.108
   27        1.604   3.504   0.000   5.108
   28        0.517   0.453   9.803  10.773
   29        0.517   0.453   9.803  10.773
   30        0.514   0.452   9.803  10.769
   31        0.538   0.483   9.757  10.777
   32        0.517   0.445   9.801  10.762
   33        0.538   0.483   9.757  10.777
   34        0.514   0.450   9.802  10.767
   35        0.514   0.453   9.803  10.770
   36        0.514   0.453   9.803  10.770
   37        0.501   0.412   9.800  10.712
   38        0.505   0.430   9.802  10.738
   39        0.505   0.430   9.802  10.738
   40        0.518   0.391   9.787  10.697
   41        0.518   0.391   9.787  10.697
   42        0.542   0.314   9.766  10.622
   43        0.526   0.370   9.778  10.674
   44        0.515   0.458   9.804  10.777
   45        0.526   0.370   9.778  10.674
   46        1.328   2.395   0.000   3.724
   47        1.328   2.395   0.000   3.724
   48        1.329   2.383   0.000   3.712
   49        1.329   2.392   0.000   3.722
   50        1.329   2.385   0.000   3.715
   51        1.327   2.395   0.000   3.722
   52        1.327   2.395   0.000   3.722
   53        1.324   2.411   0.000   3.735
   54        1.325   2.409   0.000   3.734
   55        1.325   2.409   0.000   3.734
   56        1.334   2.381   0.000   3.715
   57        1.334   2.381   0.000   3.715
   58        1.341   2.362   0.000   3.703
   59        1.334   2.382   0.000   3.716
   60        1.326   2.408   0.000   3.733
   61        1.334   2.382   0.000   3.716
--------------------------------------------------
tot         62.400 111.053 262.802 436.255
 

 total amount of memory used by VASP MPI-rank0   329586. kBytes
=======================================================================

   base      :      30000. kBytes
   nonl-proj :      39950. kBytes
   fftplans  :      62656. kBytes
   grid      :      34136. kBytes
   one-center:         62. kBytes
   wavefun   :     162782. kBytes
 
  
  
 General timing and accounting informations for this job:
 ========================================================
  
                  Total CPU time used (sec):     4326.518
                            User time (sec):     4313.650
                          System time (sec):       12.868
                         Elapsed time (sec):     4337.387
  
                   Maximum memory used (kb):      773004.
                   Average memory used (kb):           0.
  
                          Minor page faults:       857246
                          Major page faults:            0
                 Voluntary context switches:         1516
