 vasp.6.4.0 14Feb23 (build Nov 26 2024 22:10:46) complex                        
  
 executed on             LinuxIFC date 2025.02.20  08:25:28
 running   32 mpi-ranks, on    1 nodes
 distrk:  each k-point on   32 cores,    1 groups
 distr:  one band on NCORE=   1 cores,   32 groups


--------------------------------------------------------------------------------------------------------


 INCAR:
   IVDW = 11           (DFT-D3 method of method with no damping)
   ISTART = 1            (Read existing wavefunction, if there)
   ISPIN = 1            (Non-Spin polarised DFT)
   LREAL = .FALSE.       (Projection operators: automatic)
   ENCUT = 500        (Cut-off energy for plane wave basis set, in eV)
   LWAVE = .TRUE.        (Write WAVECAR or not)
   LCHARG = .TRUE.        (Write CHGCAR or not)
   ADDGRID = .TRUE.        (Increase grid, helps GGA convergence)
   LASPH = .TRUE.        (Give more accurate total energies and band structure calculations)
   PREC = Accurate      (Accurate strictly avoids any aliasing or wrap around errors)
   NSW = 300          (number of ionic steps)
   ISMEAR = 0            (gaussian smearing method )
   SIGMA = 0.05         (please check the width of the smearing)
   IBRION = 2            (Algorithm: 0-MD, 1-Quasi-New, 2-CG)
   ISIF = 3            (optimize atomic coordinates and lattice parameters)
   EDIFFG = -1.5E-02      (Ionic convergence, eV/A)

 POTCAR:    PAW_PBE Cd 06Sep2000                  
 POTCAR:    PAW_PBE Cl 06Sep2000                  
 POTCAR:    PAW_PBE Zn 06Sep2000                  
 POTCAR:    PAW_PBE S 06Sep2000                   
 -----------------------------------------------------------------------------
|                                                                             |
|           W    W    AA    RRRRR   N    N  II  N    N   GGGG   !!!           |
|           W    W   A  A   R    R  NN   N  II  NN   N  G    G  !!!           |
|           W    W  A    A  R    R  N N  N  II  N N  N  G       !!!           |
|           W WW W  AAAAAA  RRRRR   N  N N  II  N  N N  G  GGG   !            |
|           WW  WW  A    A  R   R   N   NN  II  N   NN  G    G                |
|           W    W  A    A  R    R  N    N  II  N    N   GGGG   !!!           |
|                                                                             |
|     For optimal performance we recommend to set                             |
|       NCORE = 2 up to number-of-cores-per-socket                            |
|     NCORE specifies how many cores store one orbital (NPAR=cpu/NCORE).      |
|     This setting can greatly improve the performance of VASP for DFT.       |
|     The default, NCORE=1 might be grossly inefficient on modern             |
|     multi-core architectures or massively parallel machines. Do your        |
|     own testing! More info at https://www.vasp.at/wiki/index.php/NCORE      |
|     Unfortunately you need to use the default for GW and RPA                |
|     calculations (for HF NCORE is supported but not extensively tested      |
|     yet).                                                                   |
|                                                                             |
 -----------------------------------------------------------------------------

 POTCAR:    PAW_PBE Cd 06Sep2000                  
   SHA256 =  8b7ca71966beae5276c8bb910adb3ecc013a3354c27473914c94cd54c83be4f7 Cd/POTCAR             
   COPYR  = (c) Copyright 06Sep2000 Georg Kresse                                                    
   COPYR  = This file is part of the software VASP. Any use, copying, and all other rights are regul
   COPYR  = If you do not have a valid VASP license, you may not use, copy or distribute this file. 
   VRHFIN =Cd : s2 d10                                                                              
   LEXCH  = PE                                                                                      
   EATOM  =  1293.1815 eV,   95.0462 Ry                                                             
                                                                                                    
   TITEL  = PAW_PBE Cd 06Sep2000                                                                    
   LULTRA =        F    use ultrasoft PP ?                                                          
   IUNSCR =        1    unscreen: 0-lin 1-nonlin 2-no                                               
   RPACOR =    2.000    partial core radius                                                         
   POMASS =  112.411; ZVAL   =   12.000    mass and valenz                                          
   RCORE  =    2.300    outmost cutoff radius                                                       
   RWIGS  =    2.980; RWIGS  =    1.577    wigner-seitz radius (au A)                               
   ENMAX  =  274.336; ENMIN  =  205.752 eV                                                          
   RCLOC  =    2.054    cutoff for local pot                                                        
   LCOR   =        T    correct aug charges                                                         
   LPAW   =        T    paw PP                                                                      
   EAUG   =  456.106                                                                                
   DEXC   =    0.000                                                                                
   RMAX   =    2.358    core radius for proj-oper                                                   
   RAUG   =    1.300    factor for augmentation sphere                                              
   RDEP   =    2.450    radius for radial grids                                                     
   RDEPT  =    1.955    core radius for aug-charge                                                  
                                                                                                    
   Atomic configuration                                                                             
   12 entries                                                                                       
     n  l   j            E        occ.                                                              
     1  0  0.50    -26519.7817   2.0000                                                             
     2  0  0.50     -3936.9612   2.0000                                                             
     2  1  1.50     -3532.2230   6.0000                                                             
     3  0  0.50      -733.7908   2.0000                                                             
     3  1  1.50      -601.0792   6.0000                                                             
     3  2  2.50      -393.5307  10.0000                                                             
     4  0  0.50      -105.8977   2.0000                                                             
     4  1  1.50       -66.9488   6.0000                                                             
     4  2  2.50       -11.7331  10.0000                                                             
     5  0  0.50        -5.6592   2.0000                                                             
     5  1  0.50        -1.3606   0.0000                                                             
     4  3  2.50        -1.3606   0.0000                                                             
   Description                                                                                      
     l       E           TYP  RCUT    TYP  RCUT                                                     
     2    -11.7331479     23  2.300                                                                 
     2    -13.0937305     23  2.300                                                                 
     0     -5.6591502     23  2.300                                                                 
     0     -1.5561433     23  2.300                                                                 
     1     -2.7211652     23  2.300                                                                 
     1      8.3548275     23  2.300                                                                 
  local pseudopotential read in
  partial core-charges read in
  partial kinetic energy density read in
  atomic valenz-charges read in
  non local Contribution for L=           2  read in
    real space projection operators read in
  non local Contribution for L=           2  read in
    real space projection operators read in
  non local Contribution for L=           0  read in
    real space projection operators read in
  non local Contribution for L=           0  read in
    real space projection operators read in
  non local Contribution for L=           1  read in
    real space projection operators read in
  non local Contribution for L=           1  read in
    real space projection operators read in
    PAW grid and wavefunctions read in
 
   number of l-projection  operators is LMAX  =           6
   number of lm-projection operators is LMMAX =          18
 
 POTCAR:    PAW_PBE Cl 06Sep2000                  
   SHA256 =  9f1b6e6ed4247ac726a768b330d26d7667cc3c95a39ff49c1d064c2d9dcce931 Cl/POTCAR             
   COPYR  = (c) Copyright 06Sep2000 Georg Kresse                                                    
   COPYR  = This file is part of the software VASP. Any use, copying, and all other rights are regul
   COPYR  = If you do not have a valid VASP license, you may not use, copy or distribute this file. 
   VRHFIN =Cl: s2p5                                                                                 
   LEXCH  = PE                                                                                      
   EATOM  =   409.7259 eV,   30.1140 Ry                                                             
                                                                                                    
   TITEL  = PAW_PBE Cl 06Sep2000                                                                    
   LULTRA =        F    use ultrasoft PP ?                                                          
   IUNSCR =        1    unscreen: 0-lin 1-nonlin 2-no                                               
   RPACOR =    1.500    partial core radius                                                         
   POMASS =   35.453; ZVAL   =    7.000    mass and valenz                                          
   RCORE  =    1.900    outmost cutoff radius                                                       
   RWIGS  =    2.100; RWIGS  =    1.111    wigner-seitz radius (au A)                               
   ENMAX  =  262.472; ENMIN  =  196.854 eV                                                          
   ICORE  =        2    local potential                                                             
   LCOR   =        T    correct aug charges                                                         
   LPAW   =        T    paw PP                                                                      
   EAUG   =  356.192                                                                                
   DEXC   =    0.000                                                                                
   RMAX   =    1.945    core radius for proj-oper                                                   
   RAUG   =    1.300    factor for augmentation sphere                                              
   RDEP   =    2.020    radius for radial grids                                                     
   RDEPT  =    1.678    core radius for aug-charge                                                  
                                                                                                    
   Atomic configuration                                                                             
    6 entries                                                                                       
     n  l   j            E        occ.                                                              
     1  0  0.50     -2751.1850   2.0000                                                             
     2  0  0.50      -252.6861   2.0000                                                             
     2  1  1.50      -191.6157   6.0000                                                             
     3  0  0.50       -20.6916   2.0000                                                             
     3  1  0.50        -8.5949   5.0000                                                             
     3  2  1.50        -8.1635   0.0000                                                             
   Description                                                                                      
     l       E           TYP  RCUT    TYP  RCUT                                                     
     0    -20.6915656     23  1.900                                                                 
     0    -22.0521482     23  1.900                                                                 
     1     -8.5948577     23  1.900                                                                 
     1     -5.3847331     23  1.900                                                                 
     2     -8.1634956     23  1.900                                                                 
  local pseudopotential read in
  partial core-charges read in
  partial kinetic energy density read in
  atomic valenz-charges read in
  non local Contribution for L=           0  read in
    real space projection operators read in
  non local Contribution for L=           0  read in
    real space projection operators read in
  non local Contribution for L=           1  read in
    real space projection operators read in
  non local Contribution for L=           1  read in
    real space projection operators read in
    PAW grid and wavefunctions read in
 
   number of l-projection  operators is LMAX  =           4
   number of lm-projection operators is LMMAX =           8
 
 POTCAR:    PAW_PBE Zn 06Sep2000                  
   SHA256 =  501fddbd8274dd8e9725d4f3de27861d7f1e553a7e18441bc79fed8f346e7f23 Zn/POTCAR             
   COPYR  = (c) Copyright 06Sep2000 Georg Kresse                                                    
   COPYR  = This file is part of the software VASP. Any use, copying, and all other rights are regul
   COPYR  = If you do not have a valid VASP license, you may not use, copy or distribute this file. 
   VRHFIN =Zn: d10 p2                                                                               
   LEXCH  = PE                                                                                      
   EATOM  =  1748.8345 eV,  128.5357 Ry                                                             
                                                                                                    
   TITEL  = PAW_PBE Zn 06Sep2000                                                                    
   LULTRA =        F    use ultrasoft PP ?                                                          
   IUNSCR =        1    unscreen: 0-lin 1-nonlin 2-no                                               
   RPACOR =    2.000    partial core radius                                                         
   POMASS =   65.390; ZVAL   =   12.000    mass and valenz                                          
   RCORE  =    2.300    outmost cutoff radius                                                       
   RWIGS  =    2.400; RWIGS  =    1.270    wigner-seitz radius (au A)                               
   ENMAX  =  276.723; ENMIN  =  207.542 eV                                                          
   RCLOC  =    1.828    cutoff for local pot                                                        
   LCOR   =        T    correct aug charges                                                         
   LPAW   =        T    paw PP                                                                      
   EAUG   =  575.892                                                                                
   DEXC   =    0.000                                                                                
   RMAX   =    2.347    core radius for proj-oper                                                   
   RAUG   =    1.300    factor for augmentation sphere                                              
   RDEP   =    2.324    radius for radial grids                                                     
   RDEPT  =    1.788    core radius for aug-charge                                                  
                                                                                                    
   Atomic configuration                                                                             
    9 entries                                                                                       
     n  l   j            E        occ.                                                              
     1  0  0.50     -9524.6913   2.0000                                                             
     2  0  0.50     -1158.1882   2.0000                                                             
     2  1  1.50     -1003.8506   6.0000                                                             
     3  0  0.50      -129.2194   2.0000                                                             
     3  1  1.50       -83.3890   6.0000                                                             
     3  2  2.50       -10.1410  10.0000                                                             
     4  0  0.50        -5.9785   2.0000                                                             
     4  1  0.50        -4.0817   0.0000                                                             
     4  3  2.50        -1.3606   0.0000                                                             
   Description                                                                                      
     l       E           TYP  RCUT    TYP  RCUT                                                     
     2    -10.1410010     23  2.300                                                                 
     2    -11.5015836     23  2.300                                                                 
     0     -5.9785163     23  2.300                                                                 
     0      1.1858015     23  2.300                                                                 
     1     -2.7211652     23  2.300                                                                 
     1     13.2444212     23  2.300                                                                 
  local pseudopotential read in
  partial core-charges read in
  partial kinetic energy density read in
  atomic valenz-charges read in
  non local Contribution for L=           2  read in
    real space projection operators read in
  non local Contribution for L=           2  read in
    real space projection operators read in
  non local Contribution for L=           0  read in
    real space projection operators read in
  non local Contribution for L=           0  read in
    real space projection operators read in
  non local Contribution for L=           1  read in
    real space projection operators read in
  non local Contribution for L=           1  read in
    real space projection operators read in
    PAW grid and wavefunctions read in
 
   number of l-projection  operators is LMAX  =           6
   number of lm-projection operators is LMMAX =          18
 
 POTCAR:    PAW_PBE S 06Sep2000                   
   SHA256 =  0fc7481fb0695f01bdc6462160264c5c84044ae9ec85a907d398b887a2bc3132 S/POTCAR              
   COPYR  = (c) Copyright 06Sep2000 Georg Kresse                                                    
   COPYR  = This file is part of the software VASP. Any use, copying, and all other rights are regul
   COPYR  = If you do not have a valid VASP license, you may not use, copy or distribute this file. 
   VRHFIN =S : s2p4                                                                                 
   LEXCH  = PE                                                                                      
   EATOM  =   276.8230 eV,   20.3459 Ry                                                             
                                                                                                    
   TITEL  = PAW_PBE S 06Sep2000                                                                     
   LULTRA =        F    use ultrasoft PP ?                                                          
   IUNSCR =        1    unscreen: 0-lin 1-nonlin 2-no                                               
   RPACOR =    1.500    partial core radius                                                         
   POMASS =   32.066; ZVAL   =    6.000    mass and valenz                                          
   RCORE  =    1.900    outmost cutoff radius                                                       
   RWIGS  =    2.200; RWIGS  =    1.164    wigner-seitz radius (au A)                               
   ENMAX  =  258.689; ENMIN  =  194.016 eV                                                          
   ICORE  =        2    local potential                                                             
   LCOR   =        T    correct aug charges                                                         
   LPAW   =        T    paw PP                                                                      
   EAUG   =  335.092                                                                                
   DEXC   =    0.000                                                                                
   RMAX   =    1.942    core radius for proj-oper                                                   
   RAUG   =    1.300    factor for augmentation sphere                                              
   RDEP   =    1.954    radius for radial grids                                                     
   RDEPT  =    1.744    core radius for aug-charge                                                  
                                                                                                    
   Atomic configuration                                                                             
    6 entries                                                                                       
     n  l   j            E        occ.                                                              
     1  0  0.50     -2405.8406   2.0000                                                             
     2  0  0.50      -211.7007   2.0000                                                             
     2  1  1.50      -156.4958   6.0000                                                             
     3  0  0.50       -17.2562   2.0000                                                             
     3  1  0.50        -7.0085   4.0000                                                             
     3  2  1.50        -6.8029   0.0000                                                             
   Description                                                                                      
     l       E           TYP  RCUT    TYP  RCUT                                                     
     0    -17.2561641     23  1.900                                                                 
     0    -15.8743224     23  1.900                                                                 
     1     -7.0085400     23  1.900                                                                 
     1     -2.7779785     23  1.900                                                                 
     2     -6.8029130     23  1.900                                                                 
  local pseudopotential read in
  partial core-charges read in
  partial kinetic energy density read in
  atomic valenz-charges read in
  non local Contribution for L=           0  read in
    real space projection operators read in
  non local Contribution for L=           0  read in
    real space projection operators read in
  non local Contribution for L=           1  read in
    real space projection operators read in
  non local Contribution for L=           1  read in
    real space projection operators read in
    PAW grid and wavefunctions read in
 
   number of l-projection  operators is LMAX  =           4
   number of lm-projection operators is LMMAX =           8
 
  PAW_PBE Cd 06Sep2000                  :
 energy of atom  1       EATOM=-1293.1815
 kinetic energy error for atom=    0.0063 (will be added to EATOM!!)
  PAW_PBE Cl 06Sep2000                  :
 energy of atom  2       EATOM= -409.7259
 kinetic energy error for atom=    0.0030 (will be added to EATOM!!)
  PAW_PBE Zn 06Sep2000                  :
 energy of atom  3       EATOM=-1748.8345
 kinetic energy error for atom=    0.0029 (will be added to EATOM!!)
  PAW_PBE S 06Sep2000                   :
 energy of atom  4       EATOM= -276.8230
 kinetic energy error for atom=    0.0020 (will be added to EATOM!!)
 
 
 POSCAR: cif2pos.py
  positions in direct lattice
  velocities in cartesian coordinates
 exchange correlation table for  LEXCH =        8
   RHO(1)=    0.500       N(1)  =     2000
   RHO(2)=  100.500       N(2)  =     4000
 


--------------------------------------------------------------------------------------------------------


 ion  position               nearest neighbor table
   1  1.000  0.000  0.625-   3 2.66   3 2.66   3 2.66   2 2.67   2 2.67   2 2.67
   2  0.667  0.333  0.683-   1 2.67   1 2.67   1 2.67
   3  0.333  0.667  0.568-   1 2.66   1 2.66   1 2.66
   4  0.667  0.333  0.347-   7 2.31   7 2.31   7 2.31   6 2.58   5 3.04   5 3.04   5 3.04
   5  0.333  0.667  0.429-   6 2.31   6 2.31   6 2.31   7 2.58   4 3.04   4 3.04   4 3.04
   6  0.667  0.333  0.450-   5 2.31   5 2.31   5 2.31   4 2.58
   7  0.333  0.667  0.326-   4 2.31   4 2.31   4 2.31   5 2.58
 
  LATTYP: Found a hexagonal cell.
 ALAT       =     3.8919149088
 C/A-ratio  =     6.4235731216
  
  Lattice vectors:
  
 A1 = (   3.8919149088,   0.0000000000,   0.0000000000)
 A2 = (  -1.9459574544,   3.3705083988,   0.0000000000)
 A3 = (   0.0000000000,   0.0000000000,  25.0000000000)


Analysis of symmetry for initial positions (statically):
=====================================================================
 Subroutine PRICEL returns:
 Original cell was already a primitive cell.
 

 Routine SETGRP: Setting up the symmetry group for a 
 hexagonal supercell.


 Subroutine GETGRP returns: Found  6 space group operations
 (whereof  6 operations were pure point group operations)
 out of a pool of 24 trial point group operations.


The static configuration has the point symmetry C_3v.


Analysis of symmetry for dynamics (positions and initial velocities):
=====================================================================
 Subroutine PRICEL returns:
 Original cell was already a primitive cell.
 

 Routine SETGRP: Setting up the symmetry group for a 
 hexagonal supercell.


 Subroutine GETGRP returns: Found  6 space group operations
 (whereof  6 operations were pure point group operations)
 out of a pool of 24 trial point group operations.


The dynamic configuration has the point symmetry C_3v.


 Subroutine INISYM returns: Found  6 space group operations
 (whereof  6 operations are pure point group operations),
 and found     1 'primitive' translations


----------------------------------------------------------------------------------------

                                     Primitive cell                                     

  volume of cell :     327.9433

  direct lattice vectors                    reciprocal lattice vectors
     3.891914909  0.000000000  0.000000000     0.256942925  0.148345573  0.000000000
    -1.945957454  3.370508399  0.000000000     0.000000000  0.296691146  0.000000000
     0.000000000  0.000000000 25.000000000     0.000000000  0.000000000  0.040000000

  length of vectors
     3.891914909  3.891924624 25.000000000     0.296691887  0.296691146  0.040000000

  position of ions in fractional coordinates (direct lattice)
     0.999999994  0.000000006  0.625149276
     0.666669768  0.333330232  0.682668716
     0.333330248  0.666669752  0.568005053
     0.666668220  0.333331780  0.347144654
     0.333331810  0.666668190  0.428908183
     0.666668113  0.333331887  0.450234687
     0.333331846  0.666668154  0.325639432

  ion indices of the primitive-cell ions
   primitive index   ion index
                 1           1
                 2           2
                 3           3
                 4           4
                 5           5
                 6           6
                 7           7

----------------------------------------------------------------------------------------

 
 
 KPOINTS: K-Spacing Value to Generate K-Mesh: 0.02

Automatic generation of k-mesh.
 Grid dimensions read from file:
 generate k-points for:   18   18    1

 Generating k-lattice:

  Cartesian coordinates                     Fractional coordinates (reciprocal lattice)
     0.014274607  0.008241421  0.000000000     0.055555556 -0.000000000  0.000000000
     0.000000000  0.016482841  0.000000000     0.000000000  0.055555556  0.000000000
     0.000000000  0.000000000  0.040000000     0.000000000  0.000000000  1.000000000

  Length of vectors
     0.016482883  0.016482841  0.040000000

  Shift w.r.t. Gamma in fractional coordinates (k-lattice)
     0.500000000  0.500000000  0.000000000

 
 Subroutine IBZKPT returns following result:
 ===========================================
 
 Found     90 irreducible k-points:
 
 Following reciprocal coordinates:
            Coordinates               Weight
  0.027778  0.027778  0.000000      6.000000
  0.083333  0.027778  0.000000     12.000000
  0.138889  0.027778  0.000000     12.000000
  0.194444  0.027778  0.000000     12.000000
  0.250000  0.027778  0.000000     12.000000
  0.305556  0.027778  0.000000     12.000000
  0.361111  0.027778  0.000000     12.000000
  0.416667  0.027778  0.000000     12.000000
  0.472222  0.027778  0.000000     12.000000
 -0.472222  0.027778  0.000000     12.000000
 -0.416667  0.027778  0.000000     12.000000
 -0.361111  0.027778  0.000000     12.000000
 -0.305556  0.027778  0.000000     12.000000
 -0.250000  0.027778  0.000000     12.000000
 -0.194444  0.027778  0.000000     12.000000
 -0.138889  0.027778  0.000000     12.000000
 -0.083333  0.027778  0.000000     12.000000
 -0.027778  0.027778  0.000000      6.000000
  0.083333  0.083333  0.000000      6.000000
  0.138889  0.083333  0.000000     12.000000
  0.194444  0.083333  0.000000     12.000000
  0.250000  0.083333  0.000000     12.000000
  0.305556  0.083333  0.000000     12.000000
  0.361111  0.083333  0.000000     12.000000
  0.416667  0.083333  0.000000     12.000000
  0.472222  0.083333  0.000000     12.000000
 -0.472222  0.083333  0.000000     12.000000
 -0.416667  0.083333  0.000000     12.000000
 -0.361111  0.083333  0.000000     12.000000
 -0.305556  0.083333  0.000000     12.000000
 -0.250000  0.083333  0.000000     12.000000
 -0.194444  0.083333  0.000000     12.000000
 -0.138889  0.083333  0.000000     12.000000
 -0.083333  0.083333  0.000000      6.000000
  0.138889  0.138889  0.000000      6.000000
  0.194444  0.138889  0.000000     12.000000
  0.250000  0.138889  0.000000     12.000000
  0.305556  0.138889  0.000000     12.000000
  0.361111  0.138889  0.000000     12.000000
  0.416667  0.138889  0.000000     12.000000
  0.472222  0.138889  0.000000     12.000000
 -0.472222  0.138889  0.000000     12.000000
 -0.416667  0.138889  0.000000     12.000000
 -0.361111  0.138889  0.000000     12.000000
 -0.305556  0.138889  0.000000     12.000000
 -0.250000  0.138889  0.000000     12.000000
 -0.194444  0.138889  0.000000     12.000000
 -0.138889  0.138889  0.000000      6.000000
  0.194444  0.194444  0.000000      6.000000
  0.250000  0.194444  0.000000     12.000000
  0.305556  0.194444  0.000000     12.000000
  0.361111  0.194444  0.000000     12.000000
  0.416667  0.194444  0.000000     12.000000
  0.472222  0.194444  0.000000     12.000000
 -0.472222  0.194444  0.000000     12.000000
 -0.416667  0.194444  0.000000     12.000000
 -0.361111  0.194444  0.000000     12.000000
 -0.305556  0.194444  0.000000     12.000000
 -0.250000  0.194444  0.000000     12.000000
 -0.194444  0.194444  0.000000      6.000000
  0.250000  0.250000  0.000000      6.000000
  0.305556  0.250000  0.000000     12.000000
  0.361111  0.250000  0.000000     12.000000
  0.416667  0.250000  0.000000     12.000000
  0.472222  0.250000  0.000000     12.000000
 -0.472222  0.250000  0.000000     12.000000
 -0.416667  0.250000  0.000000     12.000000
 -0.361111  0.250000  0.000000     12.000000
 -0.305556  0.250000  0.000000     12.000000
 -0.250000  0.250000  0.000000      6.000000
  0.305556  0.305556  0.000000      6.000000
  0.361111  0.305556  0.000000     12.000000
  0.416667  0.305556  0.000000     12.000000
  0.472222  0.305556  0.000000     12.000000
 -0.472222  0.305556  0.000000     12.000000
 -0.416667  0.305556  0.000000     12.000000
 -0.361111  0.305556  0.000000     12.000000
 -0.305556  0.305556  0.000000      6.000000
  0.361111  0.361111  0.000000      6.000000
  0.416667  0.361111  0.000000     12.000000
  0.472222  0.361111  0.000000     12.000000
 -0.472222  0.361111  0.000000     12.000000
 -0.416667  0.361111  0.000000     12.000000
 -0.361111  0.361111  0.000000      6.000000
  0.416667  0.416667  0.000000      6.000000
  0.472222  0.416667  0.000000     12.000000
 -0.472222  0.416667  0.000000     12.000000
 -0.416667  0.416667  0.000000      6.000000
  0.472222  0.472222  0.000000      6.000000
 -0.472222  0.472222  0.000000      6.000000
 
 Following cartesian coordinates:
            Coordinates               Weight
  0.007137  0.012362  0.000000      6.000000
  0.021412  0.020604  0.000000     12.000000
  0.035687  0.028845  0.000000     12.000000
  0.049961  0.037086  0.000000     12.000000
  0.064236  0.045328  0.000000     12.000000
  0.078510  0.053569  0.000000     12.000000
  0.092785  0.061811  0.000000     12.000000
  0.107060  0.070052  0.000000     12.000000
  0.121334  0.078293  0.000000     12.000000
 -0.121334 -0.061811  0.000000     12.000000
 -0.107060 -0.053569  0.000000     12.000000
 -0.092785 -0.045328  0.000000     12.000000
 -0.078510 -0.037086  0.000000     12.000000
 -0.064236 -0.028845  0.000000     12.000000
 -0.049961 -0.020604  0.000000     12.000000
 -0.035687 -0.012362  0.000000     12.000000
 -0.021412 -0.004121  0.000000     12.000000
 -0.007137  0.004121  0.000000      6.000000
  0.021412  0.037086  0.000000      6.000000
  0.035687  0.045328  0.000000     12.000000
  0.049961  0.053569  0.000000     12.000000
  0.064236  0.061811  0.000000     12.000000
  0.078510  0.070052  0.000000     12.000000
  0.092785  0.078293  0.000000     12.000000
  0.107060  0.086535  0.000000     12.000000
  0.121334  0.094776  0.000000     12.000000
 -0.121334 -0.045328  0.000000     12.000000
 -0.107060 -0.037086  0.000000     12.000000
 -0.092785 -0.028845  0.000000     12.000000
 -0.078510 -0.020604  0.000000     12.000000
 -0.064236 -0.012362  0.000000     12.000000
 -0.049961 -0.004121  0.000000     12.000000
 -0.035687  0.004121  0.000000     12.000000
 -0.021412  0.012362  0.000000      6.000000
  0.035687  0.061811  0.000000      6.000000
  0.049961  0.070052  0.000000     12.000000
  0.064236  0.078293  0.000000     12.000000
  0.078510  0.086535  0.000000     12.000000
  0.092785  0.094776  0.000000     12.000000
  0.107060  0.103018  0.000000     12.000000
  0.121334  0.111259  0.000000     12.000000
 -0.121334 -0.028845  0.000000     12.000000
 -0.107060 -0.020604  0.000000     12.000000
 -0.092785 -0.012362  0.000000     12.000000
 -0.078510 -0.004121  0.000000     12.000000
 -0.064236  0.004121  0.000000     12.000000
 -0.049961  0.012362  0.000000     12.000000
 -0.035687  0.020604  0.000000      6.000000
  0.049961  0.086535  0.000000      6.000000
  0.064236  0.094776  0.000000     12.000000
  0.078510  0.103018  0.000000     12.000000
  0.092785  0.111259  0.000000     12.000000
  0.107060  0.119501  0.000000     12.000000
  0.121334  0.127742  0.000000     12.000000
 -0.121334 -0.012362  0.000000     12.000000
 -0.107060 -0.004121  0.000000     12.000000
 -0.092785  0.004121  0.000000     12.000000
 -0.078510  0.012362  0.000000     12.000000
 -0.064236  0.020604  0.000000     12.000000
 -0.049961  0.028845  0.000000      6.000000
  0.064236  0.111259  0.000000      6.000000
  0.078510  0.119501  0.000000     12.000000
  0.092785  0.127742  0.000000     12.000000
  0.107060  0.135983  0.000000     12.000000
  0.121334  0.144225  0.000000     12.000000
 -0.121334  0.004121  0.000000     12.000000
 -0.107060  0.012362  0.000000     12.000000
 -0.092785  0.020604  0.000000     12.000000
 -0.078510  0.028845  0.000000     12.000000
 -0.064236  0.037086  0.000000      6.000000
  0.078510  0.135983  0.000000      6.000000
  0.092785  0.144225  0.000000     12.000000
  0.107060  0.152466  0.000000     12.000000
  0.121334  0.160708  0.000000     12.000000
 -0.121334  0.020604  0.000000     12.000000
 -0.107060  0.028845  0.000000     12.000000
 -0.092785  0.037086  0.000000     12.000000
 -0.078510  0.045328  0.000000      6.000000
  0.092785  0.160708  0.000000      6.000000
  0.107060  0.168949  0.000000     12.000000
  0.121334  0.177191  0.000000     12.000000
 -0.121334  0.037086  0.000000     12.000000
 -0.107060  0.045328  0.000000     12.000000
 -0.092785  0.053569  0.000000      6.000000
  0.107060  0.185432  0.000000      6.000000
  0.121334  0.193673  0.000000     12.000000
 -0.121334  0.053569  0.000000     12.000000
 -0.107060  0.061811  0.000000      6.000000
  0.121334  0.210156  0.000000      6.000000
 -0.121334  0.070052  0.000000      6.000000
 


--------------------------------------------------------------------------------------------------------




 Dimension of arrays:
   k-points           NKPTS =     90   k-points in BZ     NKDIM =     90   number of bands    NBANDS=     64
   number of dos      NEDOS =    301   number of ions     NIONS =      7
   non local maximal  LDIM  =      6   non local SUM 2l+1 LMDIM =     18
   total plane-waves  NPLWV = 150528
   max r-space proj   IRMAX =      1   max aug-charges    IRDMAX= 155466
   dimension x,y,z NGX =    28 NGY =   28 NGZ =  192
   dimension x,y,z NGXF=    56 NGYF=   56 NGZF=  384
   support grid    NGXF=   112 NGYF=  112 NGZF=  768
   ions per type =               1   2   2   2
   NGX,Y,Z   is equivalent  to a cutoff of  11.96, 11.96, 12.77 a.u.
   NGXF,Y,Z  is equivalent  to a cutoff of  23.92, 23.92, 25.54 a.u.

 SYSTEM =  unknown system                          
 POSCAR =  cif2pos.py                              

 Startparameter for this run:
   NWRITE =      2    write-flag & timer
   PREC   = accura    normal or accurate (medium, high low for compatibility)
   ISTART =      0    job   : 0-new  1-cont  2-samecut
   ICHARG =      2    charge: 1-file 2-atom 10-const
   ISPIN  =      1    spin polarized calculation?
   LNONCOLLINEAR =      F non collinear calculations
   LSORBIT =      F    spin-orbit coupling
   INIWAV =      1    electr: 0-lowe 1-rand  2-diag
   LASPH  =      T    aspherical Exc in radial PAW
 Electronic Relaxation 1
   ENCUT  =  500.0 eV  36.75 Ry    6.06 a.u.   7.10  7.10 45.58*2*pi/ulx,y,z
   ENINI  =  500.0     initial cutoff
   ENAUG  =  575.9 eV  augmentation charge cutoff
   NELM   =     60;   NELMIN=  2; NELMDL=  0     # of ELM steps 
   EDIFF  = 0.1E-03   stopping-criterion for ELM
   LREAL  =      F    real-space projection
   NLSPLINE    = F    spline interpolate recip. space projectors
   LCOMPAT=      F    compatible to vasp.4.4
   GGA_COMPAT  = T    GGA compatible to vasp.4.4-vasp.4.6
   LMAXPAW     = -100 max onsite density
   LMAXMIX     =    2 max onsite mixed and CHGCAR
   VOSKOWN=      0    Vosko Wilk Nusair interpolation
   ROPT   =    0.00000   0.00000   0.00000   0.00000
 Ionic relaxation
   EDIFFG = -.1E-01   stopping-criterion for IOM
   NSW    =    300    number of steps for IOM
   NBLOCK =      1;   KBLOCK =    300    inner block; outer block 
   IBRION =      2    ionic relax: 0-MD 1-quasi-New 2-CG
   NFREE  =      1    steps in history (QN), initial steepest desc. (CG)
   ISIF   =      3    stress and relaxation
   IWAVPR =     11    prediction:  0-non 1-charg 2-wave 3-comb
   ISYM   =      2    0-nonsym 1-usesym 2-fastsym
   LCORR  =      T    Harris-Foulkes like correction to forces

   POTIM  = 0.5000    time-step for ionic-motion
   TEIN   =    0.0    initial temperature
   TEBEG  =    0.0;   TEEND  =   0.0 temperature during run
   SMASS  =  -3.00    Nose mass-parameter (am)
   estimated Nose-frequenzy (Omega)   =  0.10E-29 period in steps = 0.13E+47 mass=  -0.346E-27a.u.
   SCALEE = 1.0000    scale energy and forces
   NPACO  =    256;   APACO  = 10.0  distance and # of slots for P.C.
   PSTRESS=    0.0 pullay stress

  Mass of Ions in am
   POMASS = 112.41 35.45 65.39 32.07
  Ionic Valenz
   ZVAL   =  12.00  7.00 12.00  6.00
  Atomic Wigner-Seitz radii
   RWIGS  =  -1.00 -1.00 -1.00 -1.00
  virtual crystal weights 
   VCA    =   1.00  1.00  1.00  1.00
   NELECT =      62.0000    total number of electrons
   NUPDOWN=      -1.0000    fix difference up-down

 DOS related values:
   EMIN   =  10.00;   EMAX   =-10.00  energy-range for DOS
   EFERMI =   0.00;   METHOD = LEGACY      
   ISMEAR =     0;   SIGMA  =   0.05  broadening in eV -4-tet -1-fermi 0-gaus

 Electronic relaxation 2 (details)
   IALGO  =     38    algorithm
   LDIAG  =      T    sub-space diagonalisation (order eigenvalues)
   LSUBROT=      F    optimize rotation matrix (better conditioning)
   TURBO    =      0    0=normal 1=particle mesh
   IRESTART =      0    0=no restart 2=restart with 2 vectors
   NREBOOT  =      0    no. of reboots
   NMIN     =      0    reboot dimension
   EREF     =   0.00    reference energy to select bands
   IMIX   =      4    mixing-type and parameters
     AMIX     =   0.40;   BMIX     =  1.00
     AMIX_MAG =   1.60;   BMIX_MAG =  1.00
     AMIN     =   0.10
     WC   =   100.;   INIMIX=   1;  MIXPRE=   1;  MAXMIX= -45

 Intra band minimization:
   WEIMIN = 0.0010     energy-eigenvalue tresh-hold
   EBREAK =  0.39E-06  absolut break condition
   DEPER  =   0.30     relativ break condition  

   TIME   =   0.40     timestep for ELM

  volume/ion in A,a.u.               =      46.85       316.15
  Fermi-wavevector in a.u.,A,eV,Ry     =   0.939592  1.775571 12.011665  0.882832
  Thomas-Fermi vector in A             =   2.066919
 
 Write flags
   LWAVE        =      T    write WAVECAR
   LDOWNSAMPLE  =      F    k-point downsampling of WAVECAR
   LCHARG       =      T    write CHGCAR
   LVTOT        =      F    write LOCPOT, total local potential
   LVHAR        =      F    write LOCPOT, Hartree potential only
   LELF         =      F    write electronic localiz. function (ELF)
   LORBIT       =      0    0 simple, 1 ext, 2 COOP (PROOUT), +10 PAW based schemes


 Dipole corrections
   LMONO  =      F    monopole corrections only (constant potential shift)
   LDIPOL =      F    correct potential (dipole corrections)
   IDIPOL =      0    1-x, 2-y, 3-z, 4-all directions 
   EPSILON=  1.0000000 bulk dielectric constant

 Exchange correlation treatment:
   GGA     =    --    GGA type
   LEXCH   =     8    internal setting for exchange type
   LIBXC   =     F    Libxc                    
   VOSKOWN =     0    Vosko Wilk Nusair interpolation
   LHFCALC =     F    Hartree Fock is set to
   LHFONE  =     F    Hartree Fock one center treatment
   AEXX    =    0.0000 exact exchange contribution

 Linear response parameters
   LEPSILON=     F    determine dielectric tensor
   LRPA    =     F    only Hartree local field effects (RPA)
   LNABLA  =     F    use nabla operator in PAW spheres
   LVEL    =     F    velocity operator in full k-point grid
   CSHIFT  =0.1000    complex shift for real part using Kramers Kronig
   OMEGAMAX=  -1.0    maximum frequency
   DEG_THRESHOLD= 0.2000000E-02 threshold for treating states as degnerate
   RTIME   =   -0.100 relaxation time in fs
  (WPLASMAI=    0.000 imaginary part of plasma frequency in eV, 0.658/RTIME)
   DFIELD  = 0.0000000 0.0000000 0.0000000 field for delta impulse in time
 
  Optional k-point grid parameters
   LKPOINTS_OPT  =     F    use optional k-point grid
   KPOINTS_OPT_MODE=     1    mode for optional k-point grid
 
 Orbital magnetization related:
   ORBITALMAG=     F  switch on orbital magnetization
   LCHIMAG   =     F  perturbation theory with respect to B field
   DQ        =  0.001000  dq finite difference perturbation B field
   LLRAUG    =     F  two centre corrections for induced B field
   LBONE     =     F  B-component reconstruction in AE one-centre
   LVGVCALC  =     T  calculate vGv susceptibility
   LVGVAPPL  =     F  apply vGv susceptibility instead of pGv for G=0

 Random number generation:
   RANDOM_GENERATOR = DEFAULT
   PCG_SEED         = not used


--------------------------------------------------------------------------------------------------------


 conjugate gradient relaxation of ions
 charge density and potential will be updated during run
 non-spin polarized calculation
 Variant of blocked Davidson
 Davidson routine will perform the subspace rotation
 perform sub-space diagonalisation
    after iterative eigenvector-optimisation
 modified Broyden-mixing scheme, WC =      100.0
 initial mixing is a Kerker type mixing with AMIX =  0.4000 and BMIX =      1.0000
 Hartree-type preconditioning will be used
 using additional bands           33
 reciprocal scheme for non local part
 use partial core corrections
 calculate Harris-corrections to forces 
   (improved forces if not selfconsistent)
 use gradient corrections 
 use of overlap-Matrix (Vanderbilt PP)
 Gauss-broadening in eV      SIGMA  =   0.05


--------------------------------------------------------------------------------------------------------


  energy-cutoff  :      500.00
  volume of cell :      327.94
      direct lattice vectors                 reciprocal lattice vectors
     3.891914909  0.000000000  0.000000000     0.256942925  0.148345573  0.000000000
    -1.945957454  3.370508399  0.000000000     0.000000000  0.296691146  0.000000000
     0.000000000  0.000000000 25.000000000     0.000000000  0.000000000  0.040000000

  length of vectors
     3.891914909  3.891924624 25.000000000     0.296691887  0.296691146  0.040000000


 
 k-points in units of 2pi/SCALE and weight: K-Spacing Value to Generate K-Mesh: 0.02
   0.00713730  0.01236213  0.00000000       0.006
   0.02141191  0.02060355  0.00000000       0.012
   0.03568652  0.02884497  0.00000000       0.012
   0.04996112  0.03708639  0.00000000       0.012
   0.06423573  0.04532781  0.00000000       0.012
   0.07851034  0.05356923  0.00000000       0.012
   0.09278495  0.06181066  0.00000000       0.012
   0.10705955  0.07005208  0.00000000       0.012
   0.12133416  0.07829350  0.00000000       0.012
  -0.12133416 -0.06181066  0.00000000       0.012
  -0.10705955 -0.05356923  0.00000000       0.012
  -0.09278495 -0.04532781  0.00000000       0.012
  -0.07851034 -0.03708639  0.00000000       0.012
  -0.06423573 -0.02884497  0.00000000       0.012
  -0.04996112 -0.02060355  0.00000000       0.012
  -0.03568652 -0.01236213  0.00000000       0.012
  -0.02141191 -0.00412071  0.00000000       0.012
  -0.00713730  0.00412071  0.00000000       0.006
   0.02141191  0.03708639  0.00000000       0.006
   0.03568652  0.04532781  0.00000000       0.012
   0.04996112  0.05356923  0.00000000       0.012
   0.06423573  0.06181066  0.00000000       0.012
   0.07851034  0.07005208  0.00000000       0.012
   0.09278495  0.07829350  0.00000000       0.012
   0.10705955  0.08653492  0.00000000       0.012
   0.12133416  0.09477634  0.00000000       0.012
  -0.12133416 -0.04532781  0.00000000       0.012
  -0.10705955 -0.03708639  0.00000000       0.012
  -0.09278495 -0.02884497  0.00000000       0.012
  -0.07851034 -0.02060355  0.00000000       0.012
  -0.06423573 -0.01236213  0.00000000       0.012
  -0.04996112 -0.00412071  0.00000000       0.012
  -0.03568652  0.00412071  0.00000000       0.012
  -0.02141191  0.01236213  0.00000000       0.006
   0.03568652  0.06181066  0.00000000       0.006
   0.04996112  0.07005208  0.00000000       0.012
   0.06423573  0.07829350  0.00000000       0.012
   0.07851034  0.08653492  0.00000000       0.012
   0.09278495  0.09477634  0.00000000       0.012
   0.10705955  0.10301776  0.00000000       0.012
   0.12133416  0.11125918  0.00000000       0.012
  -0.12133416 -0.02884497  0.00000000       0.012
  -0.10705955 -0.02060355  0.00000000       0.012
  -0.09278495 -0.01236213  0.00000000       0.012
  -0.07851034 -0.00412071  0.00000000       0.012
  -0.06423573  0.00412071  0.00000000       0.012
  -0.04996112  0.01236213  0.00000000       0.012
  -0.03568652  0.02060355  0.00000000       0.006
   0.04996112  0.08653492  0.00000000       0.006
   0.06423573  0.09477634  0.00000000       0.012
   0.07851034  0.10301776  0.00000000       0.012
   0.09278495  0.11125918  0.00000000       0.012
   0.10705955  0.11950060  0.00000000       0.012
   0.12133416  0.12774202  0.00000000       0.012
  -0.12133416 -0.01236213  0.00000000       0.012
  -0.10705955 -0.00412071  0.00000000       0.012
  -0.09278495  0.00412071  0.00000000       0.012
  -0.07851034  0.01236213  0.00000000       0.012
  -0.06423573  0.02060355  0.00000000       0.012
  -0.04996112  0.02884497  0.00000000       0.006
   0.06423573  0.11125918  0.00000000       0.006
   0.07851034  0.11950060  0.00000000       0.012
   0.09278495  0.12774202  0.00000000       0.012
   0.10705955  0.13598344  0.00000000       0.012
   0.12133416  0.14422486  0.00000000       0.012
  -0.12133416  0.00412071  0.00000000       0.012
  -0.10705955  0.01236213  0.00000000       0.012
  -0.09278495  0.02060355  0.00000000       0.012
  -0.07851034  0.02884497  0.00000000       0.012
  -0.06423573  0.03708639  0.00000000       0.006
   0.07851034  0.13598344  0.00000000       0.006
   0.09278495  0.14422486  0.00000000       0.012
   0.10705955  0.15246628  0.00000000       0.012
   0.12133416  0.16070770  0.00000000       0.012
  -0.12133416  0.02060355  0.00000000       0.012
  -0.10705955  0.02884497  0.00000000       0.012
  -0.09278495  0.03708639  0.00000000       0.012
  -0.07851034  0.04532781  0.00000000       0.006
   0.09278495  0.16070770  0.00000000       0.006
   0.10705955  0.16894912  0.00000000       0.012
   0.12133416  0.17719055  0.00000000       0.012
  -0.12133416  0.03708639  0.00000000       0.012
  -0.10705955  0.04532781  0.00000000       0.012
  -0.09278495  0.05356923  0.00000000       0.006
   0.10705955  0.18543197  0.00000000       0.006
   0.12133416  0.19367339  0.00000000       0.012
  -0.12133416  0.05356923  0.00000000       0.012
  -0.10705955  0.06181066  0.00000000       0.006
   0.12133416  0.21015623  0.00000000       0.006
  -0.12133416  0.07005208  0.00000000       0.006
 
 k-points in reciprocal lattice and weights: K-Spacing Value to Generate K-Mesh: 0.02
   0.02777778  0.02777778  0.00000000       0.006
   0.08333333  0.02777778  0.00000000       0.012
   0.13888889  0.02777778  0.00000000       0.012
   0.19444444  0.02777778  0.00000000       0.012
   0.25000000  0.02777778  0.00000000       0.012
   0.30555556  0.02777778  0.00000000       0.012
   0.36111111  0.02777778  0.00000000       0.012
   0.41666667  0.02777778  0.00000000       0.012
   0.47222222  0.02777778  0.00000000       0.012
  -0.47222222  0.02777778  0.00000000       0.012
  -0.41666667  0.02777778  0.00000000       0.012
  -0.36111111  0.02777778  0.00000000       0.012
  -0.30555556  0.02777778  0.00000000       0.012
  -0.25000000  0.02777778  0.00000000       0.012
  -0.19444444  0.02777778  0.00000000       0.012
  -0.13888889  0.02777778  0.00000000       0.012
  -0.08333333  0.02777778  0.00000000       0.012
  -0.02777778  0.02777778  0.00000000       0.006
   0.08333333  0.08333333  0.00000000       0.006
   0.13888889  0.08333333  0.00000000       0.012
   0.19444444  0.08333333  0.00000000       0.012
   0.25000000  0.08333333  0.00000000       0.012
   0.30555556  0.08333333  0.00000000       0.012
   0.36111111  0.08333333  0.00000000       0.012
   0.41666667  0.08333333  0.00000000       0.012
   0.47222222  0.08333333  0.00000000       0.012
  -0.47222222  0.08333333  0.00000000       0.012
  -0.41666667  0.08333333  0.00000000       0.012
  -0.36111111  0.08333333  0.00000000       0.012
  -0.30555556  0.08333333  0.00000000       0.012
  -0.25000000  0.08333333  0.00000000       0.012
  -0.19444444  0.08333333  0.00000000       0.012
  -0.13888889  0.08333333  0.00000000       0.012
  -0.08333333  0.08333333  0.00000000       0.006
   0.13888889  0.13888889  0.00000000       0.006
   0.19444444  0.13888889  0.00000000       0.012
   0.25000000  0.13888889  0.00000000       0.012
   0.30555556  0.13888889  0.00000000       0.012
   0.36111111  0.13888889  0.00000000       0.012
   0.41666667  0.13888889  0.00000000       0.012
   0.47222222  0.13888889  0.00000000       0.012
  -0.47222222  0.13888889  0.00000000       0.012
  -0.41666667  0.13888889  0.00000000       0.012
  -0.36111111  0.13888889  0.00000000       0.012
  -0.30555556  0.13888889  0.00000000       0.012
  -0.25000000  0.13888889  0.00000000       0.012
  -0.19444444  0.13888889  0.00000000       0.012
  -0.13888889  0.13888889  0.00000000       0.006
   0.19444444  0.19444444  0.00000000       0.006
   0.25000000  0.19444444  0.00000000       0.012
   0.30555556  0.19444444  0.00000000       0.012
   0.36111111  0.19444444  0.00000000       0.012
   0.41666667  0.19444444  0.00000000       0.012
   0.47222222  0.19444444  0.00000000       0.012
  -0.47222222  0.19444444  0.00000000       0.012
  -0.41666667  0.19444444  0.00000000       0.012
  -0.36111111  0.19444444  0.00000000       0.012
  -0.30555556  0.19444444  0.00000000       0.012
  -0.25000000  0.19444444  0.00000000       0.012
  -0.19444444  0.19444444  0.00000000       0.006
   0.25000000  0.25000000  0.00000000       0.006
   0.30555556  0.25000000  0.00000000       0.012
   0.36111111  0.25000000  0.00000000       0.012
   0.41666667  0.25000000  0.00000000       0.012
   0.47222222  0.25000000  0.00000000       0.012
  -0.47222222  0.25000000  0.00000000       0.012
  -0.41666667  0.25000000  0.00000000       0.012
  -0.36111111  0.25000000  0.00000000       0.012
  -0.30555556  0.25000000  0.00000000       0.012
  -0.25000000  0.25000000  0.00000000       0.006
   0.30555556  0.30555556  0.00000000       0.006
   0.36111111  0.30555556  0.00000000       0.012
   0.41666667  0.30555556  0.00000000       0.012
   0.47222222  0.30555556  0.00000000       0.012
  -0.47222222  0.30555556  0.00000000       0.012
  -0.41666667  0.30555556  0.00000000       0.012
  -0.36111111  0.30555556  0.00000000       0.012
  -0.30555556  0.30555556  0.00000000       0.006
   0.36111111  0.36111111  0.00000000       0.006
   0.41666667  0.36111111  0.00000000       0.012
   0.47222222  0.36111111  0.00000000       0.012
  -0.47222222  0.36111111  0.00000000       0.012
  -0.41666667  0.36111111  0.00000000       0.012
  -0.36111111  0.36111111  0.00000000       0.006
   0.41666667  0.41666667  0.00000000       0.006
   0.47222222  0.41666667  0.00000000       0.012
  -0.47222222  0.41666667  0.00000000       0.012
  -0.41666667  0.41666667  0.00000000       0.006
   0.47222222  0.47222222  0.00000000       0.006
  -0.47222222  0.47222222  0.00000000       0.006
 
 position of ions in fractional coordinates (direct lattice) 
   0.99999999  0.00000001  0.62514928
   0.66666977  0.33333023  0.68266872
   0.33333025  0.66666975  0.56800505
   0.66666822  0.33333178  0.34714465
   0.33333181  0.66666819  0.42890818
   0.66666811  0.33333189  0.45023469
   0.33333185  0.66666815  0.32563943
 
 position of ions in cartesian coordinates  (Angst):
   3.89191488  0.00000002 15.62873190
   1.94597556  1.12349235 17.06671789
  -0.00001801  2.24701600 14.20012634
   1.94596652  1.12349757  8.67861634
  -0.00000889  2.24701073 10.72270458
   1.94596590  1.12349793 11.25586716
  -0.00000868  2.24701061  8.14098579
 


--------------------------------------------------------------------------------------------------------


 k-point   1 :   0.0278 0.0278 0.0000  plane waves:    8267
 k-point   2 :   0.0833 0.0278 0.0000  plane waves:    8262
 k-point   3 :   0.1389 0.0278 0.0000  plane waves:    8287
 k-point   4 :   0.1944 0.0278 0.0000  plane waves:    8308
 k-point   5 :   0.2500 0.0278 0.0000  plane waves:    8309
 k-point   6 :   0.3056 0.0278 0.0000  plane waves:    8316
 k-point   7 :   0.3611 0.0278 0.0000  plane waves:    8332
 k-point   8 :   0.4167 0.0278 0.0000  plane waves:    8332
 k-point   9 :   0.4722 0.0278 0.0000  plane waves:    8346
 k-point  10 :  -0.4722 0.0278 0.0000  plane waves:    8340
 k-point  11 :  -0.4167 0.0278 0.0000  plane waves:    8322
 k-point  12 :  -0.3611 0.0278 0.0000  plane waves:    8318
 k-point  13 :  -0.3056 0.0278 0.0000  plane waves:    8327
 k-point  14 :  -0.2500 0.0278 0.0000  plane waves:    8310
 k-point  15 :  -0.1944 0.0278 0.0000  plane waves:    8300
 k-point  16 :  -0.1389 0.0278 0.0000  plane waves:    8290
 k-point  17 :  -0.0833 0.0278 0.0000  plane waves:    8269
 k-point  18 :  -0.0278 0.0278 0.0000  plane waves:    8299
 k-point  19 :   0.0833 0.0833 0.0000  plane waves:    8257
 k-point  20 :   0.1389 0.0833 0.0000  plane waves:    8270
 k-point  21 :   0.1944 0.0833 0.0000  plane waves:    8307
 k-point  22 :   0.2500 0.0833 0.0000  plane waves:    8345
 k-point  23 :   0.3056 0.0833 0.0000  plane waves:    8329
 k-point  24 :   0.3611 0.0833 0.0000  plane waves:    8326
 k-point  25 :   0.4167 0.0833 0.0000  plane waves:    8348
 k-point  26 :   0.4722 0.0833 0.0000  plane waves:    8352
 k-point  27 :  -0.4722 0.0833 0.0000  plane waves:    8346
 k-point  28 :  -0.4167 0.0833 0.0000  plane waves:    8337
 k-point  29 :  -0.3611 0.0833 0.0000  plane waves:    8329
 k-point  30 :  -0.3056 0.0833 0.0000  plane waves:    8325
 k-point  31 :  -0.2500 0.0833 0.0000  plane waves:    8288
 k-point  32 :  -0.1944 0.0833 0.0000  plane waves:    8267
 k-point  33 :  -0.1389 0.0833 0.0000  plane waves:    8265
 k-point  34 :  -0.0833 0.0833 0.0000  plane waves:    8265
 k-point  35 :   0.1389 0.1389 0.0000  plane waves:    8293
 k-point  36 :   0.1944 0.1389 0.0000  plane waves:    8322
 k-point  37 :   0.2500 0.1389 0.0000  plane waves:    8328
 k-point  38 :   0.3056 0.1389 0.0000  plane waves:    8334
 k-point  39 :   0.3611 0.1389 0.0000  plane waves:    8345
 k-point  40 :   0.4167 0.1389 0.0000  plane waves:    8355
 k-point  41 :   0.4722 0.1389 0.0000  plane waves:    8354
 k-point  42 :  -0.4722 0.1389 0.0000  plane waves:    8333
 k-point  43 :  -0.4167 0.1389 0.0000  plane waves:    8336
 k-point  44 :  -0.3611 0.1389 0.0000  plane waves:    8322
 k-point  45 :  -0.3056 0.1389 0.0000  plane waves:    8311
 k-point  46 :  -0.2500 0.1389 0.0000  plane waves:    8285
 k-point  47 :  -0.1944 0.1389 0.0000  plane waves:    8284
 k-point  48 :  -0.1389 0.1389 0.0000  plane waves:    8277
 k-point  49 :   0.1944 0.1944 0.0000  plane waves:    8337
 k-point  50 :   0.2500 0.1944 0.0000  plane waves:    8342
 k-point  51 :   0.3056 0.1944 0.0000  plane waves:    8347
 k-point  52 :   0.3611 0.1944 0.0000  plane waves:    8352
 k-point  53 :   0.4167 0.1944 0.0000  plane waves:    8353
 k-point  54 :   0.4722 0.1944 0.0000  plane waves:    8355
 k-point  55 :  -0.4722 0.1944 0.0000  plane waves:    8334
 k-point  56 :  -0.4167 0.1944 0.0000  plane waves:    8328
 k-point  57 :  -0.3611 0.1944 0.0000  plane waves:    8323
 k-point  58 :  -0.3056 0.1944 0.0000  plane waves:    8314
 k-point  59 :  -0.2500 0.1944 0.0000  plane waves:    8300
 k-point  60 :  -0.1944 0.1944 0.0000  plane waves:    8308
 k-point  61 :   0.2500 0.2500 0.0000  plane waves:    8343
 k-point  62 :   0.3056 0.2500 0.0000  plane waves:    8364
 k-point  63 :   0.3611 0.2500 0.0000  plane waves:    8377
 k-point  64 :   0.4167 0.2500 0.0000  plane waves:    8361
 k-point  65 :   0.4722 0.2500 0.0000  plane waves:    8356
 k-point  66 :  -0.4722 0.2500 0.0000  plane waves:    8346
 k-point  67 :  -0.4167 0.2500 0.0000  plane waves:    8336
 k-point  68 :  -0.3611 0.2500 0.0000  plane waves:    8324
 k-point  69 :  -0.3056 0.2500 0.0000  plane waves:    8329
 k-point  70 :  -0.2500 0.2500 0.0000  plane waves:    8306
 k-point  71 :   0.3056 0.3056 0.0000  plane waves:    8367
 k-point  72 :   0.3611 0.3056 0.0000  plane waves:    8375
 k-point  73 :   0.4167 0.3056 0.0000  plane waves:    8369
 k-point  74 :   0.4722 0.3056 0.0000  plane waves:    8359
 k-point  75 :  -0.4722 0.3056 0.0000  plane waves:    8338
 k-point  76 :  -0.4167 0.3056 0.0000  plane waves:    8336
 k-point  77 :  -0.3611 0.3056 0.0000  plane waves:    8327
 k-point  78 :  -0.3056 0.3056 0.0000  plane waves:    8314
 k-point  79 :   0.3611 0.3611 0.0000  plane waves:    8369
 k-point  80 :   0.4167 0.3611 0.0000  plane waves:    8359
 k-point  81 :   0.4722 0.3611 0.0000  plane waves:    8362
 k-point  82 :  -0.4722 0.3611 0.0000  plane waves:    8333
 k-point  83 :  -0.4167 0.3611 0.0000  plane waves:    8318
 k-point  84 :  -0.3611 0.3611 0.0000  plane waves:    8342
 k-point  85 :   0.4167 0.4167 0.0000  plane waves:    8341
 k-point  86 :   0.4722 0.4167 0.0000  plane waves:    8349
 k-point  87 :  -0.4722 0.4167 0.0000  plane waves:    8346
 k-point  88 :  -0.4167 0.4167 0.0000  plane waves:    8332
 k-point  89 :   0.4722 0.4722 0.0000  plane waves:    8342
 k-point  90 :  -0.4722 0.4722 0.0000  plane waves:    8342

 maximum and minimum number of plane-waves per node :      8377     8257

 maximum number of plane-waves:      8377
 maximum index in each direction: 
   IXMAX=    7   IYMAX=    7   IZMAX=   45
   IXMIN=   -7   IYMIN=   -7   IZMIN=  -45


 serial   3D FFT for wavefunctions
 parallel 3D FFT for charge:
    minimum data exchange during FFTs selected (reduces bandwidth)


 total amount of memory used by VASP MPI-rank0   505898. kBytes
=======================================================================

   base      :      30000. kBytes
   nonl-proj :     435565. kBytes
   fftplans  :       6661. kBytes
   grid      :       9142. kBytes
   one-center:        108. kBytes
   wavefun   :      24422. kBytes
 
     INWAV:  cpu time      0.0001: real time      0.0000
 Broyden mixing: mesh for mixing (old mesh)
   NGX = 15   NGY = 15   NGZ = 91
  (NGX  = 56   NGY  = 56   NGZ  =384)
  gives a total of  20475 points

 initial charge density was supplied:
 charge density of overlapping atoms calculated
 number of electron      62.0000000 magnetization 
 keeping initial charge density in first step


--------------------------------------------------------------------------------------------------------


 Maximum index for augmentation-charges         6317 (set IRDMAX)


--------------------------------------------------------------------------------------------------------


 First call to EWALD:  gamma=   0.257
 Maximum number of real-space cells 5x 5x 1
 Maximum number of reciprocal cells 2x 2x 9

    FEWALD:  cpu time      0.0012: real time      0.0012


--------------------------------------- Ionic step        1  -------------------------------------------




--------------------------------------- Iteration      1(   1)  ---------------------------------------


    POTLOK:  cpu time      0.0709: real time      0.0715
    SETDIJ:  cpu time      0.2693: real time      0.2712
     EDDAV:  cpu time     20.8554: real time     20.9926
       DOS:  cpu time      0.0019: real time      0.0020
    --------------------------------------------
      LOOP:  cpu time     21.1975: real time     21.3372

 eigenvalue-minimisations  : 11520
 total energy-change (2. order) : 0.3726642E+03  (-0.2598490E+04)
 number of electron      62.0000000 magnetization 
 augmentation part       62.0000000 magnetization 

 Free energy of the ion-electron system (eV)
  ---------------------------------------------------
  alpha Z        PSCENC =       105.86622775
  Ewald energy   TEWEN  =     13701.85758387
  -Hartree energ DENC   =    -19360.60114481
  -exchange      EXHF   =         0.00000000
  -V(xc)+E(xc)   XCENC  =       184.01158769
  PAW double counting   =      5192.66373745    -5507.85990336
  entropy T*S    EENTRO =        -0.00415573
  eigenvalues    EBANDS =      -107.19594450
  atomic energy  EATOM  =      6163.92622259
  Solvation  Ediel_sol  =         0.00000000
  ---------------------------------------------------
  free energy    TOTEN  =       372.66421094 eV

  energy without entropy =      372.66836667  energy(sigma->0) =      372.66628880


--------------------------------------------------------------------------------------------------------




--------------------------------------- Iteration      1(   2)  ---------------------------------------


     EDDAV:  cpu time     24.0990: real time     24.2584
       DOS:  cpu time      0.0016: real time      0.0016
    --------------------------------------------
      LOOP:  cpu time     24.1006: real time     24.2600

 eigenvalue-minimisations  : 14208
 total energy-change (2. order) :-0.3632132E+03  (-0.3236489E+03)
 number of electron      62.0000000 magnetization 
 augmentation part       62.0000000 magnetization 

 Free energy of the ion-electron system (eV)
  ---------------------------------------------------
  alpha Z        PSCENC =       105.86622775
  Ewald energy   TEWEN  =     13701.85758387
  -Hartree energ DENC   =    -19360.60114481
  -exchange      EXHF   =         0.00000000
  -V(xc)+E(xc)   XCENC  =       184.01158769
  PAW double counting   =      5192.66373745    -5507.85990336
  entropy T*S    EENTRO =        -0.00000000
  eigenvalues    EBANDS =      -470.41334660
  atomic energy  EATOM  =      6163.92622259
  Solvation  Ediel_sol  =         0.00000000
  ---------------------------------------------------
  free energy    TOTEN  =         9.45096457 eV

  energy without entropy =        9.45096457  energy(sigma->0) =        9.45096457


--------------------------------------------------------------------------------------------------------




--------------------------------------- Iteration      1(   3)  ---------------------------------------


     EDDAV:  cpu time     27.7649: real time     27.9487
       DOS:  cpu time      0.0013: real time      0.0013
    --------------------------------------------
      LOOP:  cpu time     27.7661: real time     27.9500

 eigenvalue-minimisations  : 16352
 total energy-change (2. order) :-0.3138255E+02  (-0.3118932E+02)
 number of electron      62.0000000 magnetization 
 augmentation part       62.0000000 magnetization 

 Free energy of the ion-electron system (eV)
  ---------------------------------------------------
  alpha Z        PSCENC =       105.86622775
  Ewald energy   TEWEN  =     13701.85758387
  -Hartree energ DENC   =    -19360.60114481
  -exchange      EXHF   =         0.00000000
  -V(xc)+E(xc)   XCENC  =       184.01158769
  PAW double counting   =      5192.66373745    -5507.85990336
  entropy T*S    EENTRO =        -0.00000000
  eigenvalues    EBANDS =      -501.79590035
  atomic energy  EATOM  =      6163.92622259
  Solvation  Ediel_sol  =         0.00000000
  ---------------------------------------------------
  free energy    TOTEN  =       -21.93158918 eV

  energy without entropy =      -21.93158918  energy(sigma->0) =      -21.93158918


--------------------------------------------------------------------------------------------------------




--------------------------------------- Iteration      1(   4)  ---------------------------------------


     EDDAV:  cpu time     23.9160: real time     24.0765
       DOS:  cpu time      0.0014: real time      0.0014
    --------------------------------------------
      LOOP:  cpu time     23.9174: real time     24.0779

 eigenvalue-minimisations  : 14240
 total energy-change (2. order) :-0.4779762E+00  (-0.4779305E+00)
 number of electron      62.0000000 magnetization 
 augmentation part       62.0000000 magnetization 

 Free energy of the ion-electron system (eV)
  ---------------------------------------------------
  alpha Z        PSCENC =       105.86622775
  Ewald energy   TEWEN  =     13701.85758387
  -Hartree energ DENC   =    -19360.60114481
  -exchange      EXHF   =         0.00000000
  -V(xc)+E(xc)   XCENC  =       184.01158769
  PAW double counting   =      5192.66373745    -5507.85990336
  entropy T*S    EENTRO =        -0.00000000
  eigenvalues    EBANDS =      -502.27387656
  atomic energy  EATOM  =      6163.92622259
  Solvation  Ediel_sol  =         0.00000000
  ---------------------------------------------------
  free energy    TOTEN  =       -22.40956539 eV

  energy without entropy =      -22.40956539  energy(sigma->0) =      -22.40956539


--------------------------------------------------------------------------------------------------------




--------------------------------------- Iteration      1(   5)  ---------------------------------------


     EDDAV:  cpu time     27.1880: real time     27.3694
       DOS:  cpu time      0.0010: real time      0.0010
    CHARGE:  cpu time      0.4882: real time      0.4915
    MIXING:  cpu time      0.0062: real time      0.0062
    --------------------------------------------
      LOOP:  cpu time     27.6833: real time     27.8681

 eigenvalue-minimisations  : 16224
 total energy-change (2. order) :-0.1106142E-01  (-0.1106115E-01)
 number of electron      62.0000003 magnetization 
 augmentation part       18.0880295 magnetization 

 Broyden mixing:
  rms(total) = 0.12735E+01    rms(broyden)= 0.12735E+01
  rms(prec ) = 0.12993E+01
  weight for this iteration     100.00

 Free energy of the ion-electron system (eV)
  ---------------------------------------------------
  alpha Z        PSCENC =       105.86622775
  Ewald energy   TEWEN  =     13701.85758387
  -Hartree energ DENC   =    -19360.60114481
  -exchange      EXHF   =         0.00000000
  -V(xc)+E(xc)   XCENC  =       184.01158769
  PAW double counting   =      5192.66373745    -5507.85990336
  entropy T*S    EENTRO =        -0.00000000
  eigenvalues    EBANDS =      -502.28493798
  atomic energy  EATOM  =      6163.92622259
  Solvation  Ediel_sol  =         0.00000000
  ---------------------------------------------------
  free energy    TOTEN  =       -22.42062681 eV

  energy without entropy =      -22.42062681  energy(sigma->0) =      -22.42062681


--------------------------------------------------------------------------------------------------------




--------------------------------------- Iteration      1(   6)  ---------------------------------------


    POTLOK:  cpu time      0.0482: real time      0.0485
    SETDIJ:  cpu time      0.2963: real time      0.2981
     EDDAV:  cpu time     29.9638: real time     30.1658
       DOS:  cpu time      0.0011: real time      0.0011
    CHARGE:  cpu time      0.5291: real time      0.5328
    MIXING:  cpu time      0.0042: real time      0.0042
    --------------------------------------------
      LOOP:  cpu time     30.8428: real time     31.0506

 eigenvalue-minimisations  : 18400
 total energy-change (2. order) : 0.1536223E+01  (-0.2701153E+00)
 number of electron      62.0000003 magnetization 
 augmentation part       18.4188210 magnetization 

 Broyden mixing:
  rms(total) = 0.10357E+01    rms(broyden)= 0.10357E+01
  rms(prec ) = 0.10393E+01
  weight for this iteration     100.00

 eigenvalues of (default mixing * dielectric matrix)
  average eigenvalue GAMMA=   1.8792
  1.8792

 Free energy of the ion-electron system (eV)
  ---------------------------------------------------
  alpha Z        PSCENC =       105.86622775
  Ewald energy   TEWEN  =     13701.85758387
  -Hartree energ DENC   =    -19341.23313687
  -exchange      EXHF   =         0.00000000
  -V(xc)+E(xc)   XCENC  =       184.44329092
  PAW double counting   =      5573.39672633    -5882.38925592
  entropy T*S    EENTRO =        -0.00000000
  eigenvalues    EBANDS =      -526.75206261
  atomic energy  EATOM  =      6163.92622259
  Solvation  Ediel_sol  =         0.00000000
  ---------------------------------------------------
  free energy    TOTEN  =       -20.88440395 eV

  energy without entropy =      -20.88440395  energy(sigma->0) =      -20.88440395


--------------------------------------------------------------------------------------------------------




--------------------------------------- Iteration      1(   7)  ---------------------------------------


    POTLOK:  cpu time      0.0467: real time      0.0471
    SETDIJ:  cpu time      0.3045: real time      0.3066
     EDDAV:  cpu time     28.6030: real time     28.7949
       DOS:  cpu time      0.0014: real time      0.0014
    CHARGE:  cpu time      0.4676: real time      0.4709
    MIXING:  cpu time      0.0053: real time      0.0053
    --------------------------------------------
      LOOP:  cpu time     29.4285: real time     29.6262

 eigenvalue-minimisations  : 17152
 total energy-change (2. order) : 0.9455254E-01  (-0.9536828E-01)
 number of electron      62.0000003 magnetization 
 augmentation part       18.3922030 magnetization 

 Broyden mixing:
  rms(total) = 0.38552E+00    rms(broyden)= 0.38552E+00
  rms(prec ) = 0.38682E+00
  weight for this iteration     100.00

 eigenvalues of (default mixing * dielectric matrix)
  average eigenvalue GAMMA=   1.7526
  1.0074  2.4977

 Free energy of the ion-electron system (eV)
  ---------------------------------------------------
  alpha Z        PSCENC =       105.86622775
  Ewald energy   TEWEN  =     13701.85758387
  -Hartree energ DENC   =    -19343.94999257
  -exchange      EXHF   =         0.00000000
  -V(xc)+E(xc)   XCENC  =       185.20227207
  PAW double counting   =      6217.34696495    -6531.69668048
  entropy T*S    EENTRO =        -0.00000000
  eigenvalues    EBANDS =      -519.34244958
  atomic energy  EATOM  =      6163.92622259
  Solvation  Ediel_sol  =         0.00000000
  ---------------------------------------------------
  free energy    TOTEN  =       -20.78985141 eV

  energy without entropy =      -20.78985141  energy(sigma->0) =      -20.78985141


--------------------------------------------------------------------------------------------------------




--------------------------------------- Iteration      1(   8)  ---------------------------------------


    POTLOK:  cpu time      0.0524: real time      0.0528
    SETDIJ:  cpu time      0.2654: real time      0.2672
     EDDAV:  cpu time     28.3577: real time     28.5462
       DOS:  cpu time      0.0015: real time      0.0015
    CHARGE:  cpu time      0.6098: real time      0.6139
    MIXING:  cpu time      0.0052: real time      0.0053
    --------------------------------------------
      LOOP:  cpu time     29.2921: real time     29.4870

 eigenvalue-minimisations  : 16928
 total energy-change (2. order) : 0.7600943E-02  (-0.6393550E-02)
 number of electron      62.0000003 magnetization 
 augmentation part       18.3946766 magnetization 

 Broyden mixing:
  rms(total) = 0.63084E-01    rms(broyden)= 0.63083E-01
  rms(prec ) = 0.64237E-01
  weight for this iteration     100.00

 eigenvalues of (default mixing * dielectric matrix)
  average eigenvalue GAMMA=   1.4997
  2.4106  1.0443  1.0443

 Free energy of the ion-electron system (eV)
  ---------------------------------------------------
  alpha Z        PSCENC =       105.86622775
  Ewald energy   TEWEN  =     13701.85758387
  -Hartree energ DENC   =    -19340.25134274
  -exchange      EXHF   =         0.00000000
  -V(xc)+E(xc)   XCENC  =       185.14468000
  PAW double counting   =      6570.51368714    -6885.10706424
  entropy T*S    EENTRO =        -0.00000000
  eigenvalues    EBANDS =      -522.73224483
  atomic energy  EATOM  =      6163.92622259
  Solvation  Ediel_sol  =         0.00000000
  ---------------------------------------------------
  free energy    TOTEN  =       -20.78225047 eV

  energy without entropy =      -20.78225047  energy(sigma->0) =      -20.78225047


--------------------------------------------------------------------------------------------------------




--------------------------------------- Iteration      1(   9)  ---------------------------------------


    POTLOK:  cpu time      0.0537: real time      0.0541
    SETDIJ:  cpu time      0.2523: real time      0.2538
     EDDAV:  cpu time     28.5830: real time     28.7727
       DOS:  cpu time      0.0016: real time      0.0016
    CHARGE:  cpu time      0.4727: real time      0.4760
    MIXING:  cpu time      0.0056: real time      0.0056
    --------------------------------------------
      LOOP:  cpu time     29.3688: real time     29.5637

 eigenvalue-minimisations  : 17120
 total energy-change (2. order) : 0.1664899E-02  (-0.8297610E-03)
 number of electron      62.0000003 magnetization 
 augmentation part       18.3924401 magnetization 

 Broyden mixing:
  rms(total) = 0.29526E-01    rms(broyden)= 0.29526E-01
  rms(prec ) = 0.30153E-01
  weight for this iteration     100.00

 eigenvalues of (default mixing * dielectric matrix)
  average eigenvalue GAMMA=   1.5125
  2.4363  0.9075  1.3530  1.3530

 Free energy of the ion-electron system (eV)
  ---------------------------------------------------
  alpha Z        PSCENC =       105.86622775
  Ewald energy   TEWEN  =     13701.85758387
  -Hartree energ DENC   =    -19339.40534213
  -exchange      EXHF   =         0.00000000
  -V(xc)+E(xc)   XCENC  =       185.08367213
  PAW double counting   =      6577.75671587    -6892.31939066
  entropy T*S    EENTRO =        -0.00000000
  eigenvalues    EBANDS =      -523.54627497
  atomic energy  EATOM  =      6163.92622259
  Solvation  Ediel_sol  =         0.00000000
  ---------------------------------------------------
  free energy    TOTEN  =       -20.78058557 eV

  energy without entropy =      -20.78058557  energy(sigma->0) =      -20.78058557


--------------------------------------------------------------------------------------------------------




--------------------------------------- Iteration      1(  10)  ---------------------------------------


    POTLOK:  cpu time      0.0613: real time      0.0618
    SETDIJ:  cpu time      0.2728: real time      0.2745
     EDDAV:  cpu time     27.8690: real time     28.0537
       DOS:  cpu time      0.0023: real time      0.0023
    CHARGE:  cpu time      0.5769: real time      0.5809
    MIXING:  cpu time      0.0018: real time      0.0018
    --------------------------------------------
      LOOP:  cpu time     28.7842: real time     28.9750

 eigenvalue-minimisations  : 16864
 total energy-change (2. order) :-0.2642927E-03  (-0.1459972E-03)
 number of electron      62.0000003 magnetization 
 augmentation part       18.3934396 magnetization 

 Broyden mixing:
  rms(total) = 0.15426E-01    rms(broyden)= 0.15426E-01
  rms(prec ) = 0.15834E-01
  weight for this iteration     100.00

 eigenvalues of (default mixing * dielectric matrix)
  average eigenvalue GAMMA=   1.4767
  2.2845  0.9328  1.0766  1.5447  1.5447

 Free energy of the ion-electron system (eV)
  ---------------------------------------------------
  alpha Z        PSCENC =       105.86622775
  Ewald energy   TEWEN  =     13701.85758387
  -Hartree energ DENC   =    -19338.88551206
[...]
     16      -8.4360      2.00000
     17      -8.2682      2.00000
     18      -8.1607      2.00000
     19      -8.0689      2.00000
     20      -7.4436      2.00000
     21      -7.1681      2.00000
     22      -6.7662      2.00000
     23      -6.4824      2.00000
     24      -5.7342      2.00000
     25      -5.5532      2.00000
     26      -4.7089      2.00000
     27      -4.6402      2.00000
     28      -4.4716      2.00000
     29      -4.3147      2.00000
     30      -3.6835      2.00000
     31      -3.1401      2.00000
     32       0.4768      0.00000
     33       1.1754      0.00000
     34       1.8530      0.00000
     35       2.2887      0.00000
     36       2.9434      0.00000
     37       3.6159      0.00000
     38       5.0132      0.00000
     39       5.2093      0.00000
     40       5.3490      0.00000
     41       5.5619      0.00000
     42       5.7507      0.00000
     43       5.8757      0.00000
     44       6.4689      0.00000
     45       6.5983      0.00000
     46       6.8173      0.00000
     47       6.9667      0.00000
     48       7.1917      0.00000
     49       7.6907      0.00000
     50       8.0391      0.00000
     51       8.3124      0.00000
     52       8.6440      0.00000
     53       9.0309      0.00000
     54       9.1608      0.00000
     55       9.3654      0.00000
     56       9.7234      0.00000
     57       9.8197      0.00000
     58      10.2136      0.00000
     59      10.4114      0.00000
     60      10.4854      0.00000
     61      10.8404      0.00000
     62      11.0942      0.00000
     63      11.3458      0.00000
     64      11.5207      0.00000

 k-point    88 :      -0.4167    0.4167    0.0000
  band No.  band energies     occupation 
      1     -17.4062      2.00000
      2     -17.2683      2.00000
      3     -14.5254      2.00000
      4     -14.2260      2.00000
      5     -10.6296      2.00000
      6     -10.5686      2.00000
      7     -10.3596      2.00000
      8     -10.2470      2.00000
      9     -10.2252      2.00000
     10      -8.7830      2.00000
     11      -8.6283      2.00000
     12      -8.6221      2.00000
     13      -8.5822      2.00000
     14      -8.5491      2.00000
     15      -8.4740      2.00000
     16      -8.4375      2.00000
     17      -8.2619      2.00000
     18      -8.1549      2.00000
     19      -8.0685      2.00000
     20      -7.4200      2.00000
     21      -7.0675      2.00000
     22      -6.7067      2.00000
     23      -6.3857      2.00000
     24      -5.6578      2.00000
     25      -5.5495      2.00000
     26      -4.6909      2.00000
     27      -4.5609      2.00000
     28      -4.4173      2.00000
     29      -4.3551      2.00000
     30      -3.5729      2.00000
     31      -3.0920      2.00000
     32       0.4611      0.00000
     33       1.0467      0.00000
     34       1.7479      0.00000
     35       2.3170      0.00000
     36       2.8994      0.00000
     37       3.6176      0.00000
     38       4.9699      0.00000
     39       5.2801      0.00000
     40       5.4356      0.00000
     41       5.5096      0.00000
     42       5.5597      0.00000
     43       5.7573      0.00000
     44       6.2980      0.00000
     45       6.4834      0.00000
     46       6.7794      0.00000
     47       6.8533      0.00000
     48       7.1307      0.00000
     49       7.6666      0.00000
     50       8.1703      0.00000
     51       8.4225      0.00000
     52       8.7677      0.00000
     53       8.8372      0.00000
     54       9.1942      0.00000
     55       9.2868      0.00000
     56       9.3377      0.00000
     57       9.7363      0.00000
     58       9.9820      0.00000
     59      10.4257      0.00000
     60      10.4645      0.00000
     61      10.7412      0.00000
     62      11.0443      0.00000
     63      11.3129      0.00000
     64      11.4562      0.00000

 k-point    89 :       0.4722    0.4722    0.0000
  band No.  band energies     occupation 
      1     -17.3707      2.00000
      2     -17.2675      2.00000
      3     -14.4372      2.00000
      4     -14.2084      2.00000
      5     -10.6238      2.00000
      6     -10.5692      2.00000
      7     -10.3519      2.00000
      8     -10.2352      2.00000
      9     -10.1886      2.00000
     10      -8.7380      2.00000
     11      -8.6278      2.00000
     12      -8.5963      2.00000
     13      -8.5597      2.00000
     14      -8.4841      2.00000
     15      -8.4604      2.00000
     16      -8.4310      2.00000
     17      -8.2802      2.00000
     18      -8.1622      2.00000
     19      -8.0847      2.00000
     20      -7.4638      2.00000
     21      -7.2570      2.00000
     22      -6.8304      2.00000
     23      -6.5638      2.00000
     24      -5.7547      2.00000
     25      -5.5622      2.00000
     26      -4.7474      2.00000
     27      -4.6020      2.00000
     28      -4.4763      2.00000
     29      -4.2925      2.00000
     30      -3.7059      2.00000
     31      -3.1848      2.00000
     32       0.4556      0.00000
     33       1.1445      0.00000
     34       1.8663      0.00000
     35       2.2256      0.00000
     36       2.9307      0.00000
     37       3.5850      0.00000
     38       5.0287      0.00000
     39       5.2642      0.00000
     40       5.3252      0.00000
     41       5.6034      0.00000
     42       6.0362      0.00000
     43       6.1140      0.00000
     44       6.3653      0.00000
     45       6.6048      0.00000
     46       6.8844      0.00000
     47       7.1638      0.00000
     48       7.3369      0.00000
     49       7.4606      0.00000
     50       8.0631      0.00000
     51       8.2245      0.00000
     52       8.7670      0.00000
     53       9.0013      0.00000
     54       9.0889      0.00000
     55       9.6486      0.00000
     56       9.8907      0.00000
     57      10.1057      0.00000
     58      10.2777      0.00000
     59      10.3518      0.00000
     60      10.5349      0.00000
     61      10.7871      0.00000
     62      11.1688      0.00000
     63      11.3003      0.00000
     64      11.5220      0.00000

 k-point    90 :      -0.4722    0.4722    0.0000
  band No.  band energies     occupation 
      1     -17.3765      2.00000
      2     -17.2689      2.00000
      3     -14.4548      2.00000
      4     -14.2113      2.00000
      5     -10.6300      2.00000
      6     -10.5760      2.00000
      7     -10.3531      2.00000
      8     -10.2321      2.00000
      9     -10.1880      2.00000
     10      -8.7491      2.00000
     11      -8.6297      2.00000
     12      -8.6029      2.00000
     13      -8.5407      2.00000
     14      -8.5069      2.00000
     15      -8.4731      2.00000
     16      -8.4297      2.00000
     17      -8.2865      2.00000
     18      -8.1540      2.00000
     19      -8.0846      2.00000
     20      -7.4615      2.00000
     21      -7.2495      2.00000
     22      -6.8312      2.00000
     23      -6.5459      2.00000
     24      -5.7054      2.00000
     25      -5.5576      2.00000
     26      -4.6311      2.00000
     27      -4.6172      2.00000
     28      -4.4269      2.00000
     29      -4.3151      2.00000
     30      -3.6289      2.00000
     31      -3.1669      2.00000
     32       0.4193      0.00000
     33       0.9855      0.00000
     34       1.7601      0.00000
     35       2.2087      0.00000
     36       2.8732      0.00000
     37       3.5508      0.00000
     38       5.0432      0.00000
     39       5.3161      0.00000
     40       5.4164      0.00000
     41       5.7829      0.00000
     42       5.9062      0.00000
     43       5.9445      0.00000
     44       6.3704      0.00000
     45       6.5949      0.00000
     46       6.8632      0.00000
     47       7.0364      0.00000
     48       7.2708      0.00000
     49       7.5816      0.00000
     50       8.0277      0.00000
     51       8.2836      0.00000
     52       8.9237      0.00000
     53       8.9927      0.00000
     54       9.3234      0.00000
     55       9.5251      0.00000
     56       9.6907      0.00000
     57       9.8730      0.00000
     58      10.3373      0.00000
     59      10.4213      0.00000
     60      10.4968      0.00000
     61      10.8578      0.00000
     62      11.2293      0.00000
     63      11.3116      0.00000
     64      11.5298      0.00000


--------------------------------------------------------------------------------------------------------


 soft charge-density along one line, spin component           1
         0         1         2         3         4         5         6         7         8         9
 total charge-density along one line
 
 pseudopotential strength for first ion, spin component:           1
-20.582   0.000  -0.000   0.007  -0.000 -20.539   0.000  -0.000
  0.000 -20.581  -0.000   0.000   0.007   0.000 -20.538  -0.000
 -0.000  -0.000 -20.591   0.000   0.000  -0.000  -0.000 -20.548
  0.007   0.000   0.000 -20.581   0.000   0.007   0.000   0.000
 -0.000   0.007   0.000   0.000 -20.582  -0.000   0.007   0.000
-20.539   0.000  -0.000   0.007  -0.000 -20.479   0.000  -0.000
  0.000 -20.538  -0.000   0.000   0.007   0.000 -20.478  -0.000
 -0.000  -0.000 -20.548   0.000   0.000  -0.000  -0.000 -20.488
  0.007   0.000   0.000 -20.539   0.000   0.007   0.000   0.000
 -0.000   0.007   0.000   0.000 -20.539  -0.000   0.007   0.000
 -0.000   0.000  -0.000  -0.000   0.000  -0.000   0.000  -0.000
 -0.000   0.000  -0.001  -0.000   0.000  -0.000   0.000  -0.001
  0.000  -0.001   0.000  -0.000  -0.000   0.000  -0.001   0.000
 -0.000  -0.000  -0.001   0.000   0.000  -0.000  -0.000  -0.001
 -0.000  -0.000  -0.000  -0.001   0.000  -0.000  -0.000  -0.000
  0.000  -0.001   0.000  -0.000  -0.000   0.000  -0.001   0.000
 -0.000  -0.000  -0.001   0.000   0.000  -0.000  -0.000  -0.001
 -0.000  -0.000  -0.000  -0.001   0.000  -0.000  -0.000  -0.000
 total augmentation occupancy for first ion, spin component:           1
  4.258   0.000   0.000   1.904  -0.000  -2.085  -0.000  -0.000  -1.762   0.000   0.000  -0.000   0.000  -0.000   0.007  -0.000
  0.000   5.164   0.000  -0.000   1.904  -0.000  -2.906  -0.000   0.000  -1.761   0.000   0.000   0.008   0.000  -0.000  -0.003
  0.000   0.000   2.761   0.000   0.000  -0.000  -0.000  -0.675  -0.000  -0.000   0.242  -0.073   0.000  -0.002   0.000  -0.000
  1.904  -0.000   0.000   5.164  -0.000  -1.761   0.000  -0.000  -2.906   0.000   0.000   0.000  -0.000   0.000   0.008   0.000
 -0.000   1.904   0.000  -0.000   4.258   0.000  -1.762  -0.000   0.000  -2.085   0.000  -0.000   0.007  -0.000  -0.000  -0.002
 -2.085  -0.000  -0.000  -1.761   0.000   1.922   0.000   0.000   1.628  -0.000  -0.000   0.000  -0.000   0.000  -0.006   0.000
 -0.000  -2.906  -0.000   0.000  -1.762   0.000   2.663   0.000  -0.000   1.628   0.000   0.000  -0.007   0.000   0.000   0.002
 -0.000  -0.000  -0.675  -0.000  -0.000   0.000   0.000   0.594   0.000   0.000  -0.239   0.080  -0.000   0.001  -0.000   0.000
 -1.762   0.000  -0.000  -2.906   0.000   1.628  -0.000   0.000   2.663  -0.000   0.000  -0.000   0.000  -0.000  -0.007  -0.000
  0.000  -1.761  -0.000   0.000  -2.085  -0.000   1.628   0.000  -0.000   1.922  -0.000   0.000  -0.006   0.000   0.000   0.002
  0.000   0.000   0.242   0.000   0.000  -0.000   0.000  -0.239   0.000  -0.000   2.810  -0.893   0.000  -0.005  -0.000   0.000
 -0.000   0.000  -0.073   0.000  -0.000   0.000   0.000   0.080  -0.000   0.000  -0.893   0.304   0.000   0.002   0.000   0.000
  0.000   0.008   0.000   0.000   0.007  -0.000  -0.007  -0.000   0.000  -0.006   0.000   0.000   0.188   0.000  -0.000  -0.046
 -0.000   0.000  -0.002   0.000  -0.000   0.000   0.000   0.001  -0.000   0.000  -0.005   0.002   0.000   0.162   0.000   0.000
  0.007  -0.000   0.000   0.008  -0.000  -0.006   0.000  -0.000  -0.007   0.000  -0.000   0.000  -0.000   0.000   0.188   0.000
 -0.000  -0.003  -0.000  -0.000  -0.002  -0.000   0.002   0.000   0.000   0.002   0.000   0.000  -0.046   0.000   0.000   0.012
 -0.000   0.000  -0.000  -0.000  -0.000  -0.000   0.000  -0.000   0.000  -0.000   0.001  -0.001   0.000  -0.038  -0.000   0.000
 -0.002   0.000  -0.000  -0.003   0.000   0.002  -0.000   0.000   0.002  -0.000   0.000   0.000   0.000  -0.000  -0.046  -0.000


------------------------ aborting loop because EDIFF is reached ----------------------------------------


    CHARGE:  cpu time      0.6019: real time      0.6058
    FORLOC:  cpu time      0.0057: real time      0.0057
    FORNL :  cpu time      0.9586: real time      0.9653
    STRESS:  cpu time     15.3488: real time     15.4518
    FORCOR:  cpu time      0.0420: real time      0.0423
    FORHAR:  cpu time      0.0114: real time      0.0115
    MIXING:  cpu time      0.0009: real time      0.0009
    OFIELD:  cpu time      0.0000: real time      0.0000

 ---------------------------------------------------------------------------------------------

         DFTD3 V3.0 Rev 1        
 Edisp (eV)   -1.20212

 E6    (eV) :    -0.4996
 E8    (eV) :    -0.7025
 % E8        : 58.44
    FORVDW:  cpu time      0.0158: real time      0.0159

  FORCE on cell =-STRESS in cart. coord.  units (eV):
  Direction    XX          YY          ZZ          XY          YZ          ZX
  --------------------------------------------------------------------------------------
  Alpha Z   106.21724   106.21724   106.21724
  Ewald   16132.12121 16132.12714-19040.36948     0.00880     0.00455    -0.00581
  Hartree 17675.57664 17675.58080-16490.30956     0.00346     0.00047     0.00041
  E(xc)    -302.46271  -302.46272  -303.24100    -0.00000    -0.00001     0.00001
  Local  -34486.92703-34486.94082 34836.99666    -0.01187    -0.00401     0.00374
  n-local   153.83404   160.75446   153.69799    -1.99737     0.35071     0.20317
  augment    38.23436    38.23533    38.40283     0.00015    -0.00015     0.00023
  Kinetic   673.85220   688.92681   699.39092    -4.35196     0.23962     0.13910
  Fock        0.00000     0.00000     0.00000     0.00000     0.00000     0.00000
  vdW        -1.44707    -1.44708    -0.76409     0.00000     0.00000    -0.00000
  -------------------------------------------------------------------------------------
  Total      -0.00501    -0.00501     0.02151    -0.00000    -0.00000     0.00000
  in kB      -0.02457    -0.02457     0.10542    -0.00000    -0.00000     0.00000
  external pressure =        0.02 kB  Pullay stress =        0.00 kB


 VOLUME and BASIS-vectors are now :
 -----------------------------------------------------------------------------
  energy-cutoff  :      500.00
  volume of cell :      326.86
      direct lattice vectors                 reciprocal lattice vectors
     3.885478846  0.000000000  0.000000000     0.257368535  0.148591300  0.000000000
    -1.942739423  3.364934548  0.000000000     0.000000000  0.297182601  0.000000000
     0.000000000  0.000000000 25.000000000     0.000000000  0.000000000  0.040000000

  length of vectors
     3.885478846  3.885488512 25.000000000     0.297183340  0.297182601  0.040000000


 FORCES acting on ions
    electron-ion (+dipol)            ewald-force                    non-local-force                 convergence-correction
 -----------------------------------------------------------------------------------------------
   0.571E-05 -.954E-05 -.153E+04   -.177E-04 0.203E-04 0.153E+04   0.453E-19 0.806E-20 -.153E+00   0.426E-05 -.272E-05 0.157E+00
   -.173E-01 0.956E-02 -.137E+04   -.150E-02 0.139E-02 0.137E+04   0.174E-16 0.918E-18 -.303E+01   0.355E-06 -.473E-06 0.312E-02
   0.172E-01 -.952E-02 -.426E+03   0.155E-02 -.140E-02 0.423E+03   -.257E-16 -.962E-17 0.307E+01   0.686E-06 -.630E-06 0.581E-03
   -.294E-03 0.125E-02 0.194E+04   -.390E-02 0.699E-03 -.194E+04   -.996E-17 0.225E-17 0.191E+01   -.413E-06 0.100E-06 0.345E-01
   0.311E-03 -.125E-02 0.287E+03   0.389E-02 -.692E-03 -.285E+03   -.121E-16 -.423E-17 -.176E+01   0.257E-06 -.419E-06 0.181E-01
   -.266E-02 0.251E-02 -.982E+02   -.307E-02 0.603E-03 0.102E+03   0.363E-16 0.425E-17 -.411E+01   -.258E-06 0.118E-06 0.337E-01
   0.277E-02 -.255E-02 0.121E+04   0.305E-02 -.618E-03 -.121E+04   0.215E-16 0.116E-17 0.398E+01   0.564E-07 -.678E-07 0.339E-01
 -----------------------------------------------------------------------------------------------
   0.318E-04 -.167E-04 -.194E+00   -.635E-13 0.615E-13 0.455E-12   0.275E-16 -.526E-17 -.916E-01   0.495E-05 -.409E-05 0.281E+00
 
 
 POSITION                                       TOTAL-FORCE (eV/Angst)
 -----------------------------------------------------------------------------------
      3.88548      0.00000     15.71000        -0.000000      0.000000      0.003769
      1.94276      1.12163     17.16201         0.000000     -0.000000     -0.013756
     -0.00002      2.24330     14.27397         0.000000     -0.000000      0.008961
      1.94275      1.12164      8.60797        -0.000000      0.000000      0.014402
     -0.00001      2.24329     10.66877        -0.000000      0.000000      0.001411
      1.94275      1.12164     11.20741        -0.000000      0.000000     -0.006955
     -0.00001      2.24329      8.06362        -0.000000      0.000000     -0.007832
 -----------------------------------------------------------------------------------
    total drift:                                0.000037     -0.000021     -0.005314


--------------------------------------------------------------------------------------------------------



  FREE ENERGIE OF THE ION-ELECTRON SYSTEM (eV)
  ---------------------------------------------------
  free  energy   TOTEN  =       -22.00372269 eV

  energy  without entropy=      -22.00372269  energy(sigma->0) =      -22.00372269
 
 d Force = 0.1949179E-03[ 0.583E-04, 0.331E-03]  d Energy = 0.2153932E-03-0.205E-04
 d Force = 0.2197331E+02[ 0.220E+02, 0.220E+02]  d Ewald  = 0.1871104E+02 0.326E+01


--------------------------------------------------------------------------------------------------------


    POTLOK:  cpu time      0.3705: real time      0.3729


--------------------------------------------------------------------------------------------------------


 Conjugate gradient step on ions:
 trial-energy change:   -0.000215  1 .order   -0.000204   -0.000349   -0.000059
  (g-gl).g = 0.334E-03      g.g   = 0.279E-03  gl.gl    = 0.728E-03
 g(Force)  = 0.170E-03   g(Stress)= 0.108E-03 ortho     = 0.481E-04
 gamma     =   0.45912
 trial     =   1.16240
 opt step  =   1.40027  (harmonic =   1.40027) maximal distance =0.00749882
 next E    =   -22.003718   (d E  =  -0.00021)


--------------------------------------------------------------------------------------------------------


  
 reached required accuracy - stopping structural energy minimisation
 writing wavefunctions
     LOOP+:  cpu time     94.5794: real time     95.2125
    4ORBIT:  cpu time      0.0000: real time      0.0000

 total amount of memory used by VASP MPI-rank0   505898. kBytes
=======================================================================

   base      :      30000. kBytes
   nonl-proj :     435565. kBytes
   fftplans  :       6661. kBytes
   grid      :       9142. kBytes
   one-center:        108. kBytes
   wavefun   :      24422. kBytes
 
  
  
 General timing and accounting informations for this job:
 ========================================================
  
                  Total CPU time used (sec):     1989.137
                            User time (sec):     1609.900
                          System time (sec):      379.237
                         Elapsed time (sec):     2002.890
  
                   Maximum memory used (kb):      692576.
                   Average memory used (kb):          N/A
  
                          Minor page faults:        26889
                          Major page faults:           25
                 Voluntary context switches:         1219
