<?xml version="1.0" encoding="ISO-8859-1"?>
<modeling>
 <generator>
  <i name="program" type="string">vasp </i>
  <i name="version" type="string">6.4.0  </i>
  <i name="subversion" type="string">14Feb23 (build Nov 26 2024 22:10:46) complex                          parallel </i>
  <i name="platform" type="string">LinuxIFC </i>
  <i name="date" type="string">2025 02 20 </i>
  <i name="time" type="string">08:25:28 </i>
 </generator>
 <incar>
  <i type="int" name="ISTART">     1</i>
  <i type="string" name="PREC">Accurate      (Accurate strictly avoids any aliasing or wrap around errors)</i>
  <i type="logical" name="ADDGRID"> T  </i>
  <i type="int" name="ISPIN">     1</i>
  <i type="int" name="IBRION">     2</i>
  <i name="EDIFFG">     -0.01500000</i>
  <i type="int" name="NSW">   300</i>
  <i type="int" name="ISIF">     3</i>
  <i name="ENCUT">    500.00000000</i>
  <i type="logical" name="LREAL"> F  </i>
  <i type="int" name="ISMEAR">     0</i>
  <i name="SIGMA">      0.05000000</i>
  <i type="logical" name="LWAVE"> T  </i>
  <i type="logical" name="LCHARG"> T  </i>
  <i type="logical" name="LASPH"> T  </i>
  <i type="int" name="IVDW">    11</i>
 </incar>
 <primitive_cell>
  <structure name="primitive_cell" >
   <crystal>
    <varray name="basis" >
     <v>       3.89191491       0.00000000       0.00000000 </v>
     <v>      -1.94595745       3.37050840       0.00000000 </v>
     <v>       0.00000000       0.00000000      25.00000000 </v>
    </varray>
    <i name="volume">    327.94329719 </i>
    <varray name="rec_basis" >
     <v>       0.25694292       0.14834557       0.00000000 </v>
     <v>       0.00000000       0.29669115       0.00000000 </v>
     <v>       0.00000000       0.00000000       0.04000000 </v>
    </varray>
   </crystal>
   <varray name="positions" >
    <v>       0.99999999       0.00000001       0.62514928 </v>
    <v>       0.66666977       0.33333023       0.68266872 </v>
    <v>       0.33333025       0.66666975       0.56800505 </v>
    <v>       0.66666822       0.33333178       0.34714465 </v>
    <v>       0.33333181       0.66666819       0.42890818 </v>
    <v>       0.66666811       0.33333189       0.45023469 </v>
    <v>       0.33333185       0.66666815       0.32563943 </v>
   </varray>
  </structure>
  <varray name="primitive_index" >
   <v type="int" >        1 </v>
   <v type="int" >        2 </v>
   <v type="int" >        3 </v>
   <v type="int" >        4 </v>
   <v type="int" >        5 </v>
   <v type="int" >        6 </v>
   <v type="int" >        7 </v>
  </varray>
 </primitive_cell>
 <kpoints>
  <generation param="Monkhorst-Pack">
   <v type="int" name="divisions">      18       18        1 </v>
   <v name="usershift">      0.00000000       0.00000000       0.00000000 </v>
   <v name="genvec1">      0.05555556      -0.00000000       0.00000000 </v>
   <v name="genvec2">      0.00000000       0.05555556       0.00000000 </v>
   <v name="genvec3">      0.00000000       0.00000000       1.00000000 </v>
   <v name="shift">      0.50000000       0.50000000       0.00000000 </v>
  </generation>
  <varray name="kpointlist" >
   <v>       0.02777778       0.02777778       0.00000000 </v>
   <v>       0.08333333       0.02777778       0.00000000 </v>
   <v>       0.13888889       0.02777778       0.00000000 </v>
   <v>       0.19444444       0.02777778       0.00000000 </v>
   <v>       0.25000000       0.02777778       0.00000000 </v>
   <v>       0.30555556       0.02777778       0.00000000 </v>
   <v>       0.36111111       0.02777778       0.00000000 </v>
   <v>       0.41666667       0.02777778       0.00000000 </v>
   <v>       0.47222222       0.02777778       0.00000000 </v>
   <v>      -0.47222222       0.02777778       0.00000000 </v>
   <v>      -0.41666667       0.02777778       0.00000000 </v>
   <v>      -0.36111111       0.02777778       0.00000000 </v>
   <v>      -0.30555556       0.02777778       0.00000000 </v>
   <v>      -0.25000000       0.02777778       0.00000000 </v>
   <v>      -0.19444444       0.02777778       0.00000000 </v>
   <v>      -0.13888889       0.02777778       0.00000000 </v>
   <v>      -0.08333333       0.02777778       0.00000000 </v>
   <v>      -0.02777778       0.02777778       0.00000000 </v>
   <v>       0.08333333       0.08333333       0.00000000 </v>
   <v>       0.13888889       0.08333333       0.00000000 </v>
   <v>       0.19444444       0.08333333       0.00000000 </v>
   <v>       0.25000000       0.08333333       0.00000000 </v>
   <v>       0.30555556       0.08333333       0.00000000 </v>
   <v>       0.36111111       0.08333333       0.00000000 </v>
   <v>       0.41666667       0.08333333       0.00000000 </v>
   <v>       0.47222222       0.08333333       0.00000000 </v>
   <v>      -0.47222222       0.08333333       0.00000000 </v>
   <v>      -0.41666667       0.08333333       0.00000000 </v>
   <v>      -0.36111111       0.08333333       0.00000000 </v>
   <v>      -0.30555556       0.08333333       0.00000000 </v>
   <v>      -0.25000000       0.08333333       0.00000000 </v>
   <v>      -0.19444444       0.08333333       0.00000000 </v>
   <v>      -0.13888889       0.08333333       0.00000000 </v>
   <v>      -0.08333333       0.08333333       0.00000000 </v>
   <v>       0.13888889       0.13888889       0.00000000 </v>
   <v>       0.19444444       0.13888889       0.00000000 </v>
   <v>       0.25000000       0.13888889       0.00000000 </v>
   <v>       0.30555556       0.13888889       0.00000000 </v>
   <v>       0.36111111       0.13888889       0.00000000 </v>
   <v>       0.41666667       0.13888889       0.00000000 </v>
   <v>       0.47222222       0.13888889       0.00000000 </v>
   <v>      -0.47222222       0.13888889       0.00000000 </v>
   <v>      -0.41666667       0.13888889       0.00000000 </v>
   <v>      -0.36111111       0.13888889       0.00000000 </v>
   <v>      -0.30555556       0.13888889       0.00000000 </v>
   <v>      -0.25000000       0.13888889       0.00000000 </v>
   <v>      -0.19444444       0.13888889       0.00000000 </v>
   <v>      -0.13888889       0.13888889       0.00000000 </v>
   <v>       0.19444444       0.19444444       0.00000000 </v>
   <v>       0.25000000       0.19444444       0.00000000 </v>
   <v>       0.30555556       0.19444444       0.00000000 </v>
   <v>       0.36111111       0.19444444       0.00000000 </v>
   <v>       0.41666667       0.19444444       0.00000000 </v>
   <v>       0.47222222       0.19444444       0.00000000 </v>
   <v>      -0.47222222       0.19444444       0.00000000 </v>
   <v>      -0.41666667       0.19444444       0.00000000 </v>
   <v>      -0.36111111       0.19444444       0.00000000 </v>
   <v>      -0.30555556       0.19444444       0.00000000 </v>
   <v>      -0.25000000       0.19444444       0.00000000 </v>
   <v>      -0.19444444       0.19444444       0.00000000 </v>
   <v>       0.25000000       0.25000000       0.00000000 </v>
   <v>       0.30555556       0.25000000       0.00000000 </v>
   <v>       0.36111111       0.25000000       0.00000000 </v>
   <v>       0.41666667       0.25000000       0.00000000 </v>
   <v>       0.47222222       0.25000000       0.00000000 </v>
   <v>      -0.47222222       0.25000000       0.00000000 </v>
   <v>      -0.41666667       0.25000000       0.00000000 </v>
   <v>      -0.36111111       0.25000000       0.00000000 </v>
   <v>      -0.30555556       0.25000000       0.00000000 </v>
   <v>      -0.25000000       0.25000000       0.00000000 </v>
   <v>       0.30555556       0.30555556       0.00000000 </v>
   <v>       0.36111111       0.30555556       0.00000000 </v>
   <v>       0.41666667       0.30555556       0.00000000 </v>
   <v>       0.47222222       0.30555556       0.00000000 </v>
   <v>      -0.47222222       0.30555556       0.00000000 </v>
   <v>      -0.41666667       0.30555556       0.00000000 </v>
   <v>      -0.36111111       0.30555556       0.00000000 </v>
   <v>      -0.30555556       0.30555556       0.00000000 </v>
   <v>       0.36111111       0.36111111       0.00000000 </v>
   <v>       0.41666667       0.36111111       0.00000000 </v>
   <v>       0.47222222       0.36111111       0.00000000 </v>
   <v>      -0.47222222       0.36111111       0.00000000 </v>
   <v>      -0.41666667       0.36111111       0.00000000 </v>
   <v>      -0.36111111       0.36111111       0.00000000 </v>
   <v>       0.41666667       0.41666667       0.00000000 </v>
   <v>       0.47222222       0.41666667       0.00000000 </v>
   <v>      -0.47222222       0.41666667       0.00000000 </v>
   <v>      -0.41666667       0.41666667       0.00000000 </v>
   <v>       0.47222222       0.47222222       0.00000000 </v>
   <v>      -0.47222222       0.47222222       0.00000000 </v>
  </varray>
  <varray name="weights" >
   <v>       0.00617284 </v>
   <v>       0.01234568 </v>
   <v>       0.01234568 </v>
   <v>       0.01234568 </v>
   <v>       0.01234568 </v>
   <v>       0.01234568 </v>
   <v>       0.01234568 </v>
   <v>       0.01234568 </v>
   <v>       0.01234568 </v>
   <v>       0.01234568 </v>
   <v>       0.01234568 </v>
   <v>       0.01234568 </v>
   <v>       0.01234568 </v>
   <v>       0.01234568 </v>
   <v>       0.01234568 </v>
   <v>       0.01234568 </v>
   <v>       0.01234568 </v>
   <v>       0.00617284 </v>
   <v>       0.00617284 </v>
   <v>       0.01234568 </v>
   <v>       0.01234568 </v>
   <v>       0.01234568 </v>
   <v>       0.01234568 </v>
   <v>       0.01234568 </v>
   <v>       0.01234568 </v>
   <v>       0.01234568 </v>
   <v>       0.01234568 </v>
   <v>       0.01234568 </v>
   <v>       0.01234568 </v>
   <v>       0.01234568 </v>
   <v>       0.01234568 </v>
   <v>       0.01234568 </v>
   <v>       0.01234568 </v>
   <v>       0.00617284 </v>
   <v>       0.00617284 </v>
   <v>       0.01234568 </v>
   <v>       0.01234568 </v>
   <v>       0.01234568 </v>
   <v>       0.01234568 </v>
   <v>       0.01234568 </v>
   <v>       0.01234568 </v>
   <v>       0.01234568 </v>
   <v>       0.01234568 </v>
   <v>       0.01234568 </v>
   <v>       0.01234568 </v>
   <v>       0.01234568 </v>
   <v>       0.01234568 </v>
   <v>       0.00617284 </v>
   <v>       0.00617284 </v>
   <v>       0.01234568 </v>
   <v>       0.01234568 </v>
   <v>       0.01234568 </v>
   <v>       0.01234568 </v>
   <v>       0.01234568 </v>
   <v>       0.01234568 </v>
   <v>       0.01234568 </v>
   <v>       0.01234568 </v>
   <v>       0.01234568 </v>
   <v>       0.01234568 </v>
   <v>       0.00617284 </v>
   <v>       0.00617284 </v>
   <v>       0.01234568 </v>
   <v>       0.01234568 </v>
   <v>       0.01234568 </v>
   <v>       0.01234568 </v>
   <v>       0.01234568 </v>
   <v>       0.01234568 </v>
   <v>       0.01234568 </v>
   <v>       0.01234568 </v>
   <v>       0.00617284 </v>
   <v>       0.00617284 </v>
   <v>       0.01234568 </v>
   <v>       0.01234568 </v>
   <v>       0.01234568 </v>
   <v>       0.01234568 </v>
   <v>       0.01234568 </v>
   <v>       0.01234568 </v>
   <v>       0.00617284 </v>
   <v>       0.00617284 </v>
   <v>       0.01234568 </v>
   <v>       0.01234568 </v>
   <v>       0.01234568 </v>
   <v>       0.01234568 </v>
   <v>       0.00617284 </v>
   <v>       0.00617284 </v>
   <v>       0.01234568 </v>
   <v>       0.01234568 </v>
   <v>       0.00617284 </v>
   <v>       0.00617284 </v>
   <v>       0.00617284 </v>
  </varray>
 </kpoints>
 <parameters>
  <separator name="general" >
   <i type="string" name="SYSTEM">unknown system</i>
   <i type="logical" name="LCOMPAT"> F  </i>
  </separator>
  <separator name="electronic" >
   <i type="string" name="PREC">accura</i>
   <i name="ENMAX">    500.00000000</i>
   <i name="ENAUG">    575.89200000</i>
   <i name="EDIFF">      0.00010000</i>
   <i type="int" name="IALGO">    38</i>
   <i type="int" name="IWAVPR">    11</i>
   <i type="int" name="NBANDS">    64</i>
   <i type="int" name="NBANDSLOW">    -1</i>
   <i type="int" name="NBANDSHIGH">    -1</i>
   <i name="NELECT">     62.00000000</i>
   <i type="int" name="TURBO">     0</i>
   <i type="int" name="IRESTART">     0</i>
   <i type="int" name="NREBOOT">     0</i>
   <i type="int" name="NMIN">     0</i>
   <i name="EREF">      0.00000000</i>
   <separator name="electronic smearing" >
    <i type="int" name="ISMEAR">     0</i>
    <i name="SIGMA">      0.05000000</i>
    <i name="KSPACING">      0.50000000</i>
    <i type="logical" name="KGAMMA"> T  </i>
    <i type="logical" name="KBLOWUP"> T  </i>
   </separator>
   <separator name="electronic projectors" >
    <i type="logical" name="LREAL"> F  </i>
    <v name="ROPT">      0.00000000      0.00000000      0.00000000      0.00000000</v>
    <i type="int" name="LMAXPAW">  -100</i>
    <i type="int" name="LMAXMIX">     2</i>
    <i type="logical" name="NLSPLINE"> F  </i>
   </separator>
   <separator name="electronic startup" >
    <i type="int" name="ISTART">     0</i>
    <i type="int" name="ICHARG">     2</i>
    <i type="int" name="INIWAV">     1</i>
   </separator>
   <separator name="electronic spin" >
    <i type="int" name="ISPIN">     1</i>
    <i type="logical" name="LNONCOLLINEAR"> F  </i>
    <v name="MAGMOM">      1.00000000      1.00000000      1.00000000      1.00000000      1.00000000      1.00000000      1.00000000</v>
    <i name="NUPDOWN">     -1.00000000</i>
    <i type="logical" name="LSORBIT"> F  </i>
    <v name="SAXIS">      0.00000000      0.00000000      1.00000000</v>
    <i type="logical" name="LSPIRAL"> F  </i>
    <v name="QSPIRAL">      0.00000000      0.00000000      0.00000000</v>
    <i type="logical" name="LZEROZ"> F  </i>
   </separator>
   <separator name="electronic exchange-correlation" >
    <i type="logical" name="LASPH"> T  </i>
    <i type="logical" name="LMETAGGA"> F  </i>
   </separator>
   <separator name="electronic convergence" >
    <i type="int" name="NELM">    60</i>
    <i type="int" name="NELMDL">     0</i>
    <i type="int" name="NELMIN">     2</i>
    <i name="ENINI">    500.00000000</i>
    <separator name="electronic convergence detail" >
     <i type="logical" name="LDIAG"> T  </i>
     <i type="logical" name="LSUBROT"> F  </i>
     <i name="WEIMIN">      0.00100000</i>
     <i name="EBREAK">      0.00000039</i>
     <i name="DEPER">      0.30000000</i>
     <i type="int" name="NRMM">     4</i>
     <i name="TIME">      0.40000000</i>
    </separator>
   </separator>
   <separator name="electronic mixer" >
    <i name="AMIX">      0.40000000</i>
    <i name="BMIX">      1.00000000</i>
    <i name="AMIN">      0.10000000</i>
    <i name="AMIX_MAG">      1.60000000</i>
    <i name="BMIX_MAG">      1.00000000</i>
    <separator name="electronic mixer details" >
     <i type="int" name="IMIX">     4</i>
     <i type="logical" name="MIXFIRST"> F  </i>
     <i type="int" name="MAXMIX">   -45</i>
     <i name="WC">    100.00000000</i>
     <i type="int" name="INIMIX">     1</i>
     <i type="int" name="MIXPRE">     1</i>
     <i type="int" name="MREMOVE">     5</i>
    </separator>
   </separator>
   <separator name="electronic dipolcorrection" >
    <i type="logical" name="LDIPOL"> F  </i>
    <i type="logical" name="LMONO"> F  </i>
    <i type="int" name="IDIPOL">     0</i>
    <i name="EPSILON">      1.00000000</i>
    <v name="DIPOL">   -100.00000000   -100.00000000   -100.00000000</v>
    <i name="EFIELD">      0.00000000</i>
   </separator>
  </separator>
  <separator name="grids" >
   <i type="int" name="NGX">    28</i>
   <i type="int" name="NGY">    28</i>
   <i type="int" name="NGZ">   192</i>
   <i type="int" name="NGXF">    56</i>
   <i type="int" name="NGYF">    56</i>
   <i type="int" name="NGZF">   384</i>
   <i type="logical" name="ADDGRID"> T  </i>
  </separator>
  <separator name="ionic" >
   <i type="int" name="NSW">   300</i>
   <i type="int" name="IBRION">     2</i>
   <i type="int" name="MDALGO">     0</i>
   <i type="int" name="ISIF">     3</i>
   <i name="PSTRESS">      0.00000000</i>
   <i name="EDIFFG">     -0.01500000</i>
   <i type="int" name="NFREE">     1</i>
   <i name="POTIM">      0.50000000</i>
   <i name="SMASS">     -3.00000000</i>
   <i name="SCALEE">      1.00000000</i>
  </separator>
  <separator name="ionic md" >
   <i name="TEBEG">      0.00010000</i>
   <i name="TEEND">      0.00010000</i>
   <i type="int" name="NBLOCK">     1</i>
   <i type="int" name="KBLOCK">   300</i>
   <i type="int" name="NPACO">   256</i>
   <i name="APACO">     10.00000000</i>
  </separator>
  <separator name="symmetry" >
   <i type="int" name="ISYM">     2</i>
   <i name="SYMPREC">      0.00001000</i>
  </separator>
  <separator name="dos" >
   <i type="int" name="LORBIT">     0</i>
   <v name="RWIGS">     -1.00000000     -1.00000000     -1.00000000     -1.00000000</v>
   <i type="int" name="NEDOS">   301</i>
   <i name="EMIN">     10.00000000</i>
   <i name="EMAX">    -10.00000000</i>
   <i name="EFERMI">      0.00000000</i>
  </separator>
  <separator name="writing" >
   <i type="int" name="NWRITE">     2</i>
   <i type="logical" name="LWAVE"> T  </i>
   <i type="logical" name="LDOWNSAMPLE"> F  </i>
   <i type="logical" name="LCHARG"> T  </i>
   <i type="logical" name="LPARD"> F  </i>
   <i type="logical" name="LVTOT"> F  </i>
   <i type="logical" name="LVHAR"> F  </i>
   <i type="logical" name="LELF"> F  </i>
   <i type="logical" name="LOPTICS"> F  </i>
   <v name="STM">      0.00000000      0.00000000      0.00000000      0.00000000      0.00000000      0.00000000      0.00000000</v>
  </separator>
  <separator name="performance" >
   <i type="int" name="NPAR">    32</i>
   <i type="int" name="NSIM">     4</i>
   <i type="int" name="NBLK">    -1</i>
   <i type="logical" name="LPLANE"> T  </i>
   <i type="logical" name="LSCALAPACK"> T  </i>
   <i type="logical" name="LSCAAWARE"> F  </i>
   <i type="logical" name="LSCALU"> F  </i>
   <i type="logical" name="LASYNC"> F  </i>
   <i type="logical" name="LORBITALREAL"> F  </i>
  </separator>
  <separator name="miscellaneous" >
   <i type="int" name="IDIOT">     3</i>
   <i type="int" name="PHON_NSTRUCT">    -1</i>
   <i type="logical" name="LMUSIC"> F  </i>
   <v name="POMASS">    112.41100000     35.45300000     65.39000000     32.06600000</v>
   <v name="DARWINR">      0.00000000      0.00000000      0.00000000      0.00000000</v>
   <v name="DARWINV">      1.00000000      1.00000000      1.00000000      1.00000000</v>
   <i type="logical" name="LCORR"> T  </i>
  </separator>
  <i type="logical" name="GGA_COMPAT"> T  </i>
  <i type="logical" name="LBERRY"> F  </i>
  <i type="int" name="ICORELEVEL">     0</i>
  <i type="logical" name="LDAU"> F  </i>
  <i type="int" name="I_CONSTRAINED_M">     0</i>
  <separator name="electronic exchange-correlation" >
   <i type="string" name="GGA">--</i>
   <i type="int" name="VOSKOWN">     0</i>
   <i type="logical" name="LHFCALC"> F  </i>
   <i type="string" name="PRECFOCK"></i>
   <i type="logical" name="LSYMGRAD"> F  </i>
   <i type="logical" name="LHFONE"> F  </i>
   <i type="logical" name="LRHFCALC"> F  </i>
   <i type="logical" name="LTHOMAS"> F  </i>
   <i type="logical" name="LMODELHF"> F  </i>
   <i type="logical" name="LFOCKACE"> F  </i>
   <i name="ENCUT4O">     -1.00000000</i>
   <i type="int" name="EXXOEP">     0</i>
   <i type="int" name="FOURORBIT">     0</i>
   <i name="AEXX">      0.00000000</i>
   <i name="HFALPHA">      0.00000000</i>
   <i name="MCALPHA">      0.00000000</i>
   <i name="ALDAX">      1.00000000</i>
   <i name="AGGAX">      1.00000000</i>
   <i name="ALDAC">      1.00000000</i>
   <i name="AGGAC">      1.00000000</i>
   <i type="int" name="NKREDX">     1</i>
   <i type="int" name="NKREDY">     1</i>
   <i type="int" name="NKREDZ">     1</i>
   <i type="logical" name="SHIFTRED"> F  </i>
   <i type="logical" name="ODDONLY"> F  </i>
   <i type="logical" name="EVENONLY"> F  </i>
   <i type="int" name="LMAXFOCK">     0</i>
   <i type="int" name="NMAXFOCKAE">     0</i>
   <i type="logical" name="LFOCKAEDFT"> F  </i>
   <i name="HFSCREEN">      0.00000000</i>
   <i name="HFSCREENC">      0.00000000</i>
   <i type="int" name="NBANDSGWLOW">     0</i>
  </separator>
  <separator name="vdW DFT" >
   <i type="logical" name="LUSE_VDW"> F  </i>
   <i type="int" name="IVDW_NL">     1</i>
   <i type="logical" name="LSPIN_VDW"> F  </i>
   <i name="Zab_VDW">     -0.84910000</i>
   <i name="PARAM1">      0.12340000</i>
   <i name="PARAM2">      1.00000000</i>
   <i name="PARAM3">      0.00000000</i>
  </separator>
  <separator name="model GW" >
   <i type="int" name="MODEL_GW">     0</i>
   <i name="MODEL_EPS0">     28.10942547</i>
   <i name="MODEL_ALPHA">      1.00000000</i>
  </separator>
  <separator name="linear response parameters" >
   <i type="logical" name="LEPSILON"> F  </i>
   <i type="logical" name="LRPA"> F  </i>
   <i type="logical" name="LNABLA"> F  </i>
   <i type="logical" name="LVEL"> F  </i>
   <i name="CSHIFT">      0.10000000</i>
   <i name="OMEGAMAX">     -1.00000000</i>
   <i name="DEG_THRESHOLD">      0.00200000</i>
   <i name="RTIME">     -0.10000000</i>
   <i name="WPLASMAI">      0.00000000</i>
   <v name="DFIELD">      0.00000000      0.00000000      0.00000000</v>
   <v name="WPLASMA">      0.00000000      0.00000000      0.00000000      0.00000000      0.00000000      0.00000000      0.00000000      0.00000000      0.00000000</v>
  </separator>
  <separator name="orbital magnetization" >
   <i type="logical" name="NUCIND"> F  </i>
   <v name="MAGPOS">      0.00000000      0.00000000      0.00000000</v>
   <i type="logical" name="LNICSALL"> T  </i>
   <i type="logical" name="ORBITALMAG"> F  </i>
   <i type="logical" name="LMAGBLOCH"> F  </i>
   <i type="logical" name="LCHIMAG"> F  </i>
   <i type="logical" name="LGAUGE"> T  </i>
   <i type="int" name="MAGATOM">     0</i>
   <v name="MAGDIPOL">      0.00000000      0.00000000      0.00000000</v>
   <v name="AVECCONST">      0.00000000      0.00000000      0.00000000</v>
  </separator>
  <separator name="response functions" >
   <i type="logical" name="LALL_IN_ONE"> F  </i>
   <i type="int" name="IALL_IN_ONE">    -1</i>
   <i type="int" name="NBANDS_WAVE">    -1</i>
   <i type="logical" name="LFINITE_TEMPERATURE"> F  </i>
   <i type="logical" name="LADDER"> F  </i>
   <i type="logical" name="LRPAFORCE"> F  </i>
   <i type="logical" name="LFXC"> F  </i>
   <i type="logical" name="LHARTREE"> T  </i>
   <i type="int" name="IBSE">     0</i>
   <v type="int" name="KPOINT">    -1     0     0     0</v>
   <i type="logical" name="LTCTC"> F  </i>
   <i type="logical" name="LTCTE"> F  </i>
   <i type="logical" name="LTETE"> F  </i>
   <i type="logical" name="LTRIPLET"> F  </i>
   <i type="logical" name="LFXCEPS"> F  </i>
   <i type="logical" name="LFXHEG"> F  </i>
   <i type="int" name="NATURALO">     2</i>
   <i type="logical" name="LHOLEGF"> F  </i>
   <i type="logical" name="L2ORDER"> F  </i>
   <i type="logical" name="LDMP1"> F  </i>
   <i type="logical" name="LMP2LT"> F  </i>
   <i type="logical" name="LSMP2LT"> F  </i>
   <i type="logical" name="LGWLF"> F  </i>
   <i name="ENCUTGW">     -1.60000002</i>
   <i name="ENCUTGWSOFT">     -1.60000002</i>
   <i name="ENCUTLF">     -1.00000000</i>
   <i type="logical" name="LESF_SPLINES"> F  </i>
   <i type="int" name="LMAXMP2">    -1</i>
   <i name="SCISSOR">      0.00000000</i>
   <i type="int" name="NOMEGA">     0</i>
   <i type="int" name="NOMEGAR">     0</i>
   <i type="int" name="NBANDSGW">    -1</i>
   <i type="int" name="NBANDSO">    -1</i>
   <i type="int" name="NBANDSV">    -1</i>
   <i type="int" name="NELMGW">     1</i>
   <i type="int" name="NELMHF">     1</i>
   <i type="int" name="DIM">     3</i>
   <i type="int" name="IESPILON">     4</i>
   <i type="int" name="ANTIRES">     0</i>
   <i name="OMEGAMAX">    -30.00000000</i>
   <i name="OMEGAMIN">    -30.00000000</i>
   <i name="OMEGATL">   -200.00000000</i>
   <i type="int" name="OMEGAGRID">     0</i>
   <i name="CSHIFT">     -0.10000000</i>
   <i type="logical" name="LSELFENERGY"> F  </i>
   <i type="logical" name="LSPECTRAL"> F  </i>
   <i type="logical" name="LSPECTRALGW"> F  </i>
   <i type="logical" name="LSINGLES"> F  </i>
   <i type="logical" name="LFERMIGW"> F  </i>
   <i type="logical" name="ODDONLYGW"> F  </i>
   <i type="logical" name="EVENONLYGW"> F  </i>
   <i type="int" name="NKREDLFX">     1</i>
   <i type="int" name="NKREDLFY">     1</i>
   <i type="int" name="NKREDLFZ">     1</i>
   <i type="int" name="MAXMEM">  2800</i>
   <i type="int" name="TELESCOPE">     0</i>
   <i type="int" name="NTAUPAR">    -1</i>
   <i type="int" name="NOMEGAPAR">    -1</i>
   <i name="DAMP_NEWTON">      0.80000001</i>
   <i name="LAMBDA">      1.00000000</i>
  </separator>
  <separator name="External order field" >
   <i name="OFIELD_KAPPA">      0.00000000</i>
   <v name="OFIELD_K">      0.00000000      0.00000000      0.00000000</v>
   <i name="OFIELD_Q6_NEAR">      0.00000000</i>
   <i name="OFIELD_Q6_FAR">      0.00000000</i>
   <i name="OFIELD_A">      0.00000000</i>
  </separator>
  <separator name="optional k-points parameters" >
   <i type="int" name="KPOINTS_OPT_MODE">     1</i>
   <i type="logical" name="LKPOINTS_OPT"> F  </i>
  </separator>
 </parameters>
 <atominfo>
  <atoms>       7 </atoms>
  <types>       4 </types>
  <array name="atoms" >
   <dimension dim="1">ion</dimension>
   <field type="string">element</field>
   <field type="int">atomtype</field>
   <set>
    <rc><c>Cd</c><c>   1</c></rc>
    <rc><c>Cl</c><c>   2</c></rc>
    <rc><c>Cl</c><c>   2</c></rc>
    <rc><c>Zn</c><c>   3</c></rc>
    <rc><c>Zn</c><c>   3</c></rc>
    <rc><c>S </c><c>   4</c></rc>
    <rc><c>S </c><c>   4</c></rc>
   </set>
  </array>
  <array name="atomtypes" >
   <dimension dim="1">type</dimension>
   <field type="int">atomspertype</field>
   <field type="string">element</field>
   <field>mass</field>
   <field>valence</field>
   <field type="string">pseudopotential</field>
   <set>
    <rc><c>   1</c><c>Cd</c><c>    112.41100000</c><c>     12.00000000</c><c>  PAW_PBE Cd 06Sep2000                  </c></rc>
    <rc><c>   2</c><c>Cl</c><c>     35.45300000</c><c>      7.00000000</c><c>  PAW_PBE Cl 06Sep2000                  </c></rc>
    <rc><c>   2</c><c>Zn</c><c>     65.39000000</c><c>     12.00000000</c><c>  PAW_PBE Zn 06Sep2000                  </c></rc>
    <rc><c>   2</c><c>S </c><c>     32.06600000</c><c>      6.00000000</c><c>  PAW_PBE S 06Sep2000                   </c></rc>
   </set>
  </array>
 </atominfo>
 <structure name="initialpos" >
  <crystal>
   <varray name="basis" >
    <v>       3.89191491       0.00000000       0.00000000 </v>
    <v>      -1.94595745       3.37050840       0.00000000 </v>
    <v>       0.00000000       0.00000000      25.00000000 </v>
   </varray>
   <i name="volume">    327.94329719 </i>
   <varray name="rec_basis" >
    <v>       0.25694292       0.14834557       0.00000000 </v>
    <v>       0.00000000       0.29669115       0.00000000 </v>
    <v>       0.00000000       0.00000000       0.04000000 </v>
   </varray>
  </crystal>
  <varray name="positions" >
   <v>       0.99999999       0.00000001       0.62514928 </v>
   <v>       0.66666977       0.33333023       0.68266872 </v>
   <v>       0.33333025       0.66666975       0.56800505 </v>
   <v>       0.66666822       0.33333178       0.34714465 </v>
   <v>       0.33333181       0.66666819       0.42890818 </v>
   <v>       0.66666811       0.33333189       0.45023469 </v>
   <v>       0.33333185       0.66666815       0.32563943 </v>
  </varray>
 </structure>
 <calculation>
  <scstep>
   <time name="dav">   20.86   20.99</time>
   <time name="total">   21.20   21.34</time>
   <energy>
    <i name="alphaZ">    105.86622775 </i>
    <i name="ewald">  13701.85758387 </i>
    <i name="hartreedc"> -19360.60114481 </i>
    <i name="XCdc">    184.01158769 </i>
    <i name="pawpsdc">   5192.66373745 </i>
    <i name="pawaedc">  -5507.85990336 </i>
    <i name="eentropy">     -0.00415573 </i>
    <i name="bandstr">   -107.19594450 </i>
    <i name="atom">   6163.92622259 </i>
    <i name="e_fr_energy">    372.66421094 </i>
    <i name="e_wo_entrp">    372.66836667 </i>
    <i name="e_0_energy">    372.66628880 </i>
   </energy>
  </scstep>
  <scstep>
   <time name="dav">   24.10   24.26</time>
   <time name="total">   24.10   24.26</time>
   <energy>
    <i name="e_fr_energy">      9.45096457 </i>
    <i name="e_wo_entrp">      9.45096457 </i>
    <i name="e_0_energy">      9.45096457 </i>
   </energy>
  </scstep>
  <scstep>
   <time name="dav">   27.76   27.95</time>
   <time name="total">   27.77   27.95</time>
   <energy>
    <i name="e_fr_energy">    -21.93158918 </i>
    <i name="e_wo_entrp">    -21.93158918 </i>
    <i name="e_0_energy">    -21.93158918 </i>
   </energy>
  </scstep>
  <scstep>
   <time name="dav">   23.92   24.08</time>
   <time name="total">   23.92   24.08</time>
   <energy>
    <i name="e_fr_energy">    -22.40956539 </i>
    <i name="e_wo_entrp">    -22.40956539 </i>
    <i name="e_0_energy">    -22.40956539 </i>
   </energy>
  </scstep>
  <scstep>
   <time name="dav">   27.19   27.37</time>
   <time name="total">   27.68   27.87</time>
   <energy>
    <i name="e_fr_energy">    -22.42062681 </i>
    <i name="e_wo_entrp">    -22.42062681 </i>
    <i name="e_0_energy">    -22.42062681 </i>
   </energy>
  </scstep>
  <scstep>
   <time name="dav">   29.96   30.17</time>
   <time name="total">   30.84   31.05</time>
   <energy>
    <i name="e_fr_energy">    -20.88440395 </i>
    <i name="e_wo_entrp">    -20.88440395 </i>
    <i name="e_0_energy">    -20.88440395 </i>
   </energy>
  </scstep>
  <scstep>
   <time name="dav">   28.60   28.79</time>
   <time name="total">   29.43   29.63</time>
   <energy>
    <i name="e_fr_energy">    -20.78985141 </i>
    <i name="e_wo_entrp">    -20.78985141 </i>
    <i name="e_0_energy">    -20.78985141 </i>
   </energy>
  </scstep>
  <scstep>
   <time name="dav">   28.36   28.55</time>
   <time name="total">   29.29   29.49</time>
   <energy>
    <i name="e_fr_energy">    -20.78225047 </i>
    <i name="e_wo_entrp">    -20.78225047 </i>
    <i name="e_0_energy">    -20.78225047 </i>
   </energy>
  </scstep>
  <scstep>
   <time name="dav">   28.58   28.77</time>
   <time name="total">   29.37   29.56</time>
   <energy>
    <i name="e_fr_energy">    -20.78058557 </i>
    <i name="e_wo_entrp">    -20.78058557 </i>
    <i name="e_0_energy">    -20.78058557 </i>
   </energy>
  </scstep>
  <scstep>
   <time name="dav">   27.87   28.05</time>
   <time name="total">   28.78   28.97</time>
   <energy>
    <i name="e_fr_energy">    -20.78084986 </i>
    <i name="e_wo_entrp">    -20.78084986 </i>
    <i name="e_0_energy">    -20.78084986 </i>
   </energy>
  </scstep>
  <scstep>
   <time name="dav">   27.72   27.90</time>
   <time name="total">   28.74   28.93</time>
   <energy>
    <i name="e_fr_energy">    -20.78099557 </i>
    <i name="e_wo_entrp">    -20.78099557 </i>
    <i name="e_0_energy">    -20.78099557 </i>
   </energy>
  </scstep>
  <scstep>
   <time name="dav">   25.72   25.89</time>
   <time name="total">   26.63   26.81</time>
   <energy>
    <i name="e_fr_energy">    -20.78118783 </i>
    <i name="e_wo_entrp">    -20.78118783 </i>
    <i name="e_0_energy">    -20.78118783 </i>
   </energy>
  </scstep>
  <scstep>
   <time name="dav">   27.30   27.48</time>
   <time name="total">   27.58   27.77</time>
   <energy>
    <i name="alphaZ">    105.86622775 </i>
    <i name="ewald">  13701.85758387 </i>
    <i name="hartreedc"> -19338.52322561 </i>
    <i name="XCdc">    185.07571261 </i>
    <i name="pawpsdc">   6570.07794756 </i>
    <i name="pawaedc">  -6884.59067144 </i>
    <i name="eentropy">     -0.00000000 </i>
    <i name="bandstr">   -524.47104434 </i>
    <i name="atom">   6163.92622259 </i>
    <i name="e_fr_energy">    -20.78124703 </i>
    <i name="e_wo_entrp">    -20.78124703 </i>
    <i name="e_0_energy">    -20.78124703 </i>
   </energy>
  </scstep>
  <structure>
   <crystal>
    <varray name="basis" >
     <v>       3.89191491       0.00000000       0.00000000 </v>
     <v>      -1.94595745       3.37050840       0.00000000 </v>
     <v>       0.00000000       0.00000000      25.00000000 </v>
    </varray>
    <i name="volume">    327.94329719 </i>
    <varray name="rec_basis" >
     <v>       0.25694292       0.14834557       0.00000000 </v>
     <v>       0.00000000       0.29669115       0.00000000 </v>
     <v>       0.00000000       0.00000000       0.04000000 </v>
    </varray>
   </crystal>
   <varray name="positions" >
    <v>       0.99999999       0.00000001       0.62514928 </v>
    <v>       0.66666977       0.33333023       0.68266872 </v>
    <v>       0.33333025       0.66666975       0.56800505 </v>
    <v>       0.66666822       0.33333178       0.34714465 </v>
    <v>       0.33333181       0.66666819       0.42890818 </v>
    <v>       0.66666811       0.33333189       0.45023469 </v>
    <v>       0.33333185       0.66666815       0.32563943 </v>
   </varray>
  </structure>
  <varray name="forces" >
   <v>      -0.00000000       0.00000000      -0.01981992 </v>
   <v>       0.00000000      -0.00000000       0.04400417 </v>
   <v>      -0.00000000       0.00000000       0.04737769 </v>
   <v>      -0.00000000       0.00000000      -0.00806470 </v>
   <v>      -0.00000000       0.00000000       0.00674592 </v>
   <v>      -0.00000000       0.00000000       0.00349803 </v>
   <v>      -0.00000000       0.00000000      -0.07374120 </v>
  </varray>
  <varray name="stress" >
   <v>      -0.10154293       0.00000000      -0.00000000 </v>
   <v>       0.00000000      -0.10154361      -0.00000000 </v>
   <v>       0.00000000      -0.00000000       2.27335642 </v>
  </varray>
  <energy>
   <i name="e_fr_energy">    -21.99731165 </i>
   <i name="e_wo_entrp">    -21.99731165 </i>
   <i name="e_0_energy">    -21.99731165 </i>
  </energy>
  <time name="totalsc">  376.04  378.56</time>
 </calculation>
 <calculation>
  <scstep>
   <time name="dav">   26.03   26.20</time>
   <time name="total">   26.89   27.07</time>
   <energy>
    <i name="alphaZ">    105.89656339 </i>
    <i name="ewald">  13699.13739326 </i>
    <i name="hartreedc"> -19336.10611061 </i>
    <i name="XCdc">    185.09035833 </i>
    <i name="pawpsdc">   6569.70118846 </i>
    <i name="pawaedc">  -6884.21000083 </i>
    <i name="eentropy">     -0.00000000 </i>
    <i name="bandstr">   -524.21710510 </i>
    <i name="atom">   6163.92622259 </i>
    <i name="e_fr_energy">    -20.78149051 </i>
    <i name="e_wo_entrp">    -20.78149051 </i>
    <i name="e_0_energy">    -20.78149051 </i>
   </energy>
  </scstep>
  <scstep>
   <time name="dav">   28.53   28.72</time>
   <time name="total">   29.42   29.62</time>
   <energy>
    <i name="e_fr_energy">    -20.78158805 </i>
    <i name="e_wo_entrp">    -20.78158805 </i>
    <i name="e_0_energy">    -20.78158805 </i>
   </energy>
  </scstep>
  <scstep>
   <time name="dav">   23.81   23.97</time>
   <time name="total">   24.14   24.30</time>
   <energy>
    <i name="alphaZ">    105.89656339 </i>
    <i name="ewald">  13699.13739326 </i>
    <i name="hartreedc"> -19335.49260871 </i>
    <i name="XCdc">    185.07475577 </i>
    <i name="pawpsdc">   6569.54958288 </i>
    <i name="pawaedc">  -6884.02431372 </i>
    <i name="eentropy">     -0.00000000 </i>
    <i name="bandstr">   -524.84918777 </i>
    <i name="atom">   6163.92622259 </i>
    <i name="e_fr_energy">    -20.78159230 </i>
    <i name="e_wo_entrp">    -20.78159230 </i>
    <i name="e_0_energy">    -20.78159230 </i>
   </energy>
  </scstep>
  <structure>
   <crystal>
    <varray name="basis" >
     <v>       3.89135742       0.00000000       0.00000000 </v>
     <v>      -1.94567871       3.37002560       0.00000000 </v>
     <v>       0.00000000       0.00000000      25.00000000 </v>
    </varray>
    <i name="volume">    327.84935296 </i>
    <varray name="rec_basis" >
     <v>       0.25697974       0.14836683       0.00000000 </v>
     <v>       0.00000000       0.29673365       0.00000000 </v>
     <v>       0.00000000       0.00000000       0.04000000 </v>
    </varray>
   </crystal>
   <varray name="positions" >
    <v>       0.99999999       0.00000001       0.62511103 </v>
    <v>       0.66666977       0.33333023       0.68275363 </v>
    <v>       0.33333025       0.66666975       0.56809648 </v>
    <v>       0.66666822       0.33333178       0.34712909 </v>
    <v>       0.33333181       0.66666819       0.42892120 </v>
    <v>       0.66666811       0.33333189       0.45024144 </v>
    <v>       0.33333185       0.66666815       0.32549713 </v>
   </varray>
  </structure>
  <varray name="forces" >
   <v>       0.00000000      -0.00000000       0.00356045 </v>
   <v>      -0.00000000      -0.00000000       0.03313050 </v>
   <v>      -0.00000000       0.00000000       0.03549560 </v>
   <v>       0.00000000      -0.00000000      -0.01232997 </v>
   <v>       0.00000000      -0.00000000      -0.00633189 </v>
   <v>       0.00000000      -0.00000000       0.00357708 </v>
   <v>      -0.00000000       0.00000000      -0.05710177 </v>
  </varray>
  <varray name="stress" >
   <v>       0.00368014      -0.00000000       0.00000000 </v>
   <v>       0.00000000       0.00368016      -0.00000000 </v>
   <v>       0.00000000      -0.00000000       2.50291741 </v>
  </varray>
  <energy>
   <i name="e_fr_energy">    -21.99787263 </i>
   <i name="e_wo_entrp">    -21.99787263 </i>
   <i name="e_0_energy">    -21.99787263 </i>
  </energy>
  <time name="totalsc">   99.87  100.53</time>
 </calculation>
 <calculation>
  <scstep>
   <time name="dav">   19.37   19.50</time>
   <time name="total">   20.34   20.47</time>
   <energy>
    <i name="alphaZ">    105.97309882 </i>
    <i name="ewald">  13692.26813475 </i>
    <i name="hartreedc"> -19329.73031831 </i>
    <i name="XCdc">    185.11229657 </i>
    <i name="pawpsdc">   6569.41261327 </i>
    <i name="pawaedc">  -6883.90814157 </i>
    <i name="eentropy">     -0.00000000 </i>
    <i name="bandstr">   -523.83501228 </i>
    <i name="atom">   6163.92622259 </i>
    <i name="e_fr_energy">    -20.78110617 </i>
    <i name="e_wo_entrp">    -20.78110617 </i>
    <i name="e_0_energy">    -20.78110617 </i>
   </energy>
  </scstep>
  <scstep>
   <time name="dav">   28.51   28.70</time>
   <time name="total">   29.50   29.69</time>
   <energy>
    <i name="e_fr_energy">    -20.78158509 </i>
    <i name="e_wo_entrp">    -20.78158509 </i>
    <i name="e_0_energy">    -20.78158509 </i>
   </energy>
  </scstep>
  <scstep>
   <time name="dav">   28.45   28.63</time>
   <time name="total">   28.81   29.00</time>
   <energy>
    <i name="alphaZ">    105.97309882 </i>
    <i name="ewald">  13692.26813475 </i>
    <i name="hartreedc"> -19328.28032054 </i>
    <i name="XCdc">    185.07317272 </i>
    <i name="pawpsdc">   6568.98281553 </i>
    <i name="pawaedc">  -6883.39553804 </i>
    <i name="eentropy">     -0.00000000 </i>
    <i name="bandstr">   -525.32912637 </i>
    <i name="atom">   6163.92622259 </i>
    <i name="e_fr_energy">    -20.78154055 </i>
    <i name="e_wo_entrp">    -20.78154055 </i>
    <i name="e_0_energy">    -20.78154055 </i>
   </energy>
  </scstep>
  <structure>
   <crystal>
    <varray name="basis" >
     <v>       3.88995197       0.00000000       0.00000000 </v>
     <v>      -1.94497599       3.36880843       0.00000000 </v>
     <v>       0.00000000       0.00000000      25.00000000 </v>
    </varray>
    <i name="volume">    327.61257504 </i>
    <varray name="rec_basis" >
     <v>       0.25707258       0.14842043       0.00000000 </v>
     <v>       0.00000000       0.29684086       0.00000000 </v>
     <v>       0.00000000       0.00000000       0.04000000 </v>
    </varray>
   </crystal>
   <varray name="positions" >
    <v>       0.99999999       0.00000001       0.62501461 </v>
    <v>       0.66666977       0.33333023       0.68296771 </v>
    <v>       0.33333025       0.66666975       0.56832697 </v>
    <v>       0.66666822       0.33333178       0.34708986 </v>
    <v>       0.33333181       0.66666819       0.42895402 </v>
    <v>       0.66666811       0.33333189       0.45025845 </v>
    <v>       0.33333185       0.66666815       0.32513839 </v>
   </varray>
  </structure>
  <varray name="forces" >
   <v>      -0.00000000       0.00000000       0.05592094 </v>
   <v>       0.00000000      -0.00000000       0.01057329 </v>
   <v>       0.00000000       0.00000000      -0.00102613 </v>
   <v>       0.00000000      -0.00000000      -0.02658769 </v>
   <v>      -0.00000000       0.00000000      -0.02288932 </v>
   <v>      -0.00000000       0.00000000       0.00140966 </v>
   <v>      -0.00000000       0.00000000      -0.01740077 </v>
  </varray>
  <varray name="stress" >
   <v>       0.15303538      -0.00000000       0.00000000 </v>
   <v>      -0.00000000       0.15303640      -0.00000000 </v>
   <v>       0.00000000       0.00000000       2.61950493 </v>
  </varray>
  <energy>
   <i name="e_fr_energy">    -21.99836397 </i>
   <i name="e_wo_entrp">    -21.99836397 </i>
   <i name="e_0_energy">    -21.99836397 </i>
  </energy>
  <time name="totalsc">   98.14   98.78</time>
 </calculation>
 <calculation>
  <scstep>
   <time name="dav">   20.80   20.94</time>
   <time name="total">   21.76   21.90</time>
   <energy>
    <i name="alphaZ">    105.92477080 </i>
    <i name="ewald">  13666.45990059 </i>
    <i name="hartreedc"> -19301.57805114 </i>
    <i name="XCdc">    185.02431412 </i>
    <i name="pawpsdc">   6568.60238438 </i>
    <i name="pawaedc">  -6883.06685058 </i>
    <i name="eentropy">     -0.00000000 </i>
    <i name="bandstr">   -526.07572755 </i>
    <i name="atom">   6163.92622259 </i>
    <i name="e_fr_energy">    -20.78303678 </i>
    <i name="e_wo_entrp">    -20.78303678 </i>
    <i name="e_0_energy">    -20.78303678 </i>
   </energy>
  </scstep>
  <scstep>
   <time name="dav">   28.16   28.35</time>
   <time name="total">   29.12   29.31</time>
   <energy>
    <i name="e_fr_energy">    -20.78316251 </i>
    <i name="e_wo_entrp">    -20.78316251 </i>
    <i name="e_0_energy">    -20.78316251 </i>
   </energy>
  </scstep>
  <scstep>
   <time name="dav">   23.01   23.16</time>
   <time name="total">   23.35   23.50</time>
   <energy>
    <i name="alphaZ">    105.92477080 </i>
    <i name="ewald">  13666.45990059 </i>
    <i name="hartreedc"> -19301.89561224 </i>
    <i name="XCdc">    185.04729296 </i>
    <i name="pawpsdc">   6564.35707586 </i>
    <i name="pawaedc">  -6878.87502090 </i>
    <i name="eentropy">     -0.00000000 </i>
    <i name="bandstr">   -525.72778932 </i>
    <i name="atom">   6163.92622259 </i>
    <i name="e_fr_energy">    -20.78315968 </i>
    <i name="e_wo_entrp">    -20.78315968 </i>
    <i name="e_0_energy">    -20.78315968 </i>
   </energy>
  </scstep>
  <structure>
   <crystal>
    <varray name="basis" >
     <v>       3.89083926       0.00000000       0.00000000 </v>
     <v>      -1.94541963       3.36957685       0.00000000 </v>
     <v>       0.00000000       0.00000000      25.00000000 </v>
    </varray>
    <i name="volume">    327.76204779 </i>
    <varray name="rec_basis" >
     <v>       0.25701396       0.14838658       0.00000000 </v>
     <v>       0.00000000       0.29677317       0.00000000 </v>
     <v>       0.00000000       0.00000000       0.04000000 </v>
    </varray>
   </crystal>
   <varray name="positions" >
    <v>       0.99999999       0.00000001       0.62515121 </v>
    <v>       0.66666977       0.33333023       0.68305549 </v>
    <v>       0.33333025       0.66666975       0.56838545 </v>
    <v>       0.66666822       0.33333178       0.34700222 </v>
    <v>       0.33333181       0.66666819       0.42889633 </v>
    <v>       0.66666811       0.33333189       0.45026708 </v>
    <v>       0.33333185       0.66666815       0.32499221 </v>
   </varray>
  </structure>
  <varray name="forces" >
   <v>      -0.00000000       0.00000000       0.04738053 </v>
   <v>       0.00000000      -0.00000000       0.00821529 </v>
   <v>      -0.00000000       0.00000000       0.00419538 </v>
   <v>      -0.00000000       0.00000000      -0.02790555 </v>
   <v>      -0.00000000       0.00000000      -0.02091820 </v>
   <v>      -0.00000000       0.00000000      -0.00979491 </v>
   <v>      -0.00000000       0.00000000      -0.00117255 </v>
  </varray>
  <varray name="stress" >
   <v>      -0.11380628       0.00000000      -0.00000000 </v>
   <v>       0.00000000      -0.11380704      -0.00000000 </v>
   <v>      -0.00000000      -0.00000000       1.56189090 </v>
  </varray>
  <energy>
   <i name="e_fr_energy">    -21.99870005 </i>
   <i name="e_wo_entrp">    -21.99870005 </i>
   <i name="e_0_energy">    -21.99870005 </i>
  </energy>
  <time name="totalsc">   93.56   94.18</time>
 </calculation>
 <calculation>
  <scstep>
   <time name="dav">   19.81   19.94</time>
   <time name="total">   20.83   20.97</time>
   <energy>
    <i name="alphaZ">    105.81021336 </i>
    <i name="ewald">  13605.34195747 </i>
    <i name="hartreedc"> -19239.29699899 </i>
    <i name="XCdc">    184.94415844 </i>
    <i name="pawpsdc">   6563.35867445 </i>
    <i name="pawaedc">  -6877.85694786 </i>
    <i name="eentropy">     -0.00000000 </i>
    <i name="bandstr">   -527.01346334 </i>
    <i name="atom">   6163.92622259 </i>
    <i name="e_fr_energy">    -20.78618388 </i>
    <i name="e_wo_entrp">    -20.78618388 </i>
    <i name="e_0_energy">    -20.78618388 </i>
   </energy>
  </scstep>
  <scstep>
   <time name="dav">   27.16   27.34</time>
   <time name="total">   28.11   28.30</time>
   <energy>
    <i name="e_fr_energy">    -20.78674472 </i>
    <i name="e_wo_entrp">    -20.78674472 </i>
    <i name="e_0_energy">    -20.78674472 </i>
   </energy>
  </scstep>
  <scstep>
   <time name="dav">   27.09   27.27</time>
   <time name="total">   27.46   27.64</time>
   <energy>
    <i name="alphaZ">    105.81021336 </i>
    <i name="ewald">  13605.34195747 </i>
    <i name="hartreedc"> -19240.47132317 </i>
    <i name="XCdc">    185.00476528 </i>
    <i name="pawpsdc">   6555.21203075 </i>
    <i name="pawaedc">  -6869.77921026 </i>
    <i name="eentropy">     -0.00000000 </i>
    <i name="bandstr">   -525.83131466 </i>
    <i name="atom">   6163.92622259 </i>
    <i name="e_fr_energy">    -20.78665865 </i>
    <i name="e_wo_entrp">    -20.78665865 </i>
    <i name="e_0_energy">    -20.78665865 </i>
   </energy>
  </scstep>
  <structure>
   <crystal>
    <varray name="basis" >
     <v>       3.89294493       0.00000000       0.00000000 </v>
     <v>      -1.94647247       3.37140043       0.00000000 </v>
     <v>       0.00000000       0.00000000      25.00000000 </v>
    </varray>
    <i name="volume">    328.11690559 </i>
    <varray name="rec_basis" >
     <v>       0.25687494       0.14830632       0.00000000 </v>
     <v>       0.00000000       0.29661265       0.00000000 </v>
     <v>       0.00000000       0.00000000       0.04000000 </v>
    </varray>
   </crystal>
   <varray name="positions" >
    <v>       0.99999999       0.00000001       0.62547540 </v>
    <v>       0.66666977       0.33333023       0.68326380 </v>
    <v>       0.33333025       0.66666975       0.56852425 </v>
    <v>       0.66666822       0.33333178       0.34679424 </v>
    <v>       0.33333181       0.66666819       0.42875943 </v>
    <v>       0.66666811       0.33333189       0.45028756 </v>
    <v>       0.33333185       0.66666815       0.32464531 </v>
   </varray>
  </structure>
  <varray name="forces" >
   <v>      -0.00000000       0.00000000       0.03374605 </v>
   <v>      -0.00000000       0.00000000       0.00632065 </v>
   <v>       0.00000000      -0.00000000       0.02170015 </v>
   <v>      -0.00000000       0.00000000      -0.02690905 </v>
   <v>       0.00000000       0.00000000      -0.02159171 </v>
   <v>      -0.00000000       0.00000000      -0.04196765 </v>
   <v>      -0.00000000       0.00000000       0.02870157 </v>
  </varray>
  <varray name="stress" >
   <v>      -0.91320906       0.00000000      -0.00000000 </v>
   <v>       0.00000000      -0.91321515       0.00000000 </v>
   <v>      -0.00000000       0.00000000       0.26806571 </v>
  </varray>
  <energy>
   <i name="e_fr_energy">    -21.99915832 </i>
   <i name="e_wo_entrp">    -21.99915832 </i>
   <i name="e_0_energy">    -21.99915832 </i>
  </energy>
  <time name="totalsc">   95.41   96.05</time>
 </calculation>
 <calculation>
  <scstep>
   <time name="dav">   25.17   25.34</time>
   <time name="total">   26.16   26.33</time>
   <energy>
    <i name="alphaZ">    105.84723506 </i>
    <i name="ewald">  13603.10754482 </i>
    <i name="hartreedc"> -19239.05941139 </i>
    <i name="XCdc">    185.04176084 </i>
    <i name="pawpsdc">   6553.66347714 </i>
    <i name="pawaedc">  -6868.14404661 </i>
    <i name="eentropy">     -0.00000000 </i>
    <i name="bandstr">   -525.16935829 </i>
    <i name="atom">   6163.92622259 </i>
    <i name="e_fr_energy">    -20.78657584 </i>
    <i name="e_wo_entrp">    -20.78657584 </i>
    <i name="e_0_energy">    -20.78657584 </i>
   </energy>
  </scstep>
  <scstep>
   <time name="dav">   27.90   28.08</time>
   <time name="total">   28.26   28.44</time>
   <energy>
    <i name="alphaZ">    105.84723506 </i>
    <i name="ewald">  13603.10754482 </i>
    <i name="hartreedc"> -19238.77667766 </i>
    <i name="XCdc">    185.02540743 </i>
    <i name="pawpsdc">   6554.62256672 </i>
    <i name="pawaedc">  -6869.01541201 </i>
    <i name="eentropy">     -0.00000000 </i>
    <i name="bandstr">   -525.52344145 </i>
    <i name="atom">   6163.92622259 </i>
    <i name="e_fr_energy">    -20.78655450 </i>
    <i name="e_wo_entrp">    -20.78655450 </i>
    <i name="e_0_energy">    -20.78655450 </i>
   </energy>
  </scstep>
  <structure>
   <crystal>
    <varray name="basis" >
     <v>       3.89226406       0.00000000       0.00000000 </v>
     <v>      -1.94613203       3.37081078       0.00000000 </v>
     <v>       0.00000000       0.00000000      25.00000000 </v>
    </varray>
    <i name="volume">    328.00214166 </i>
    <varray name="rec_basis" >
     <v>       0.25691988       0.14833227       0.00000000 </v>
     <v>       0.00000000       0.29666453       0.00000000 </v>
     <v>       0.00000000       0.00000000       0.04000000 </v>
    </varray>
   </crystal>
   <varray name="positions" >
    <v>       0.99999999       0.00000001       0.62554213 </v>
    <v>       0.66666977       0.33333023       0.68330061 </v>
    <v>       0.33333025       0.66666975       0.56855569 </v>
    <v>       0.66666822       0.33333178       0.34674935 </v>
    <v>       0.33333181       0.66666819       0.42872834 </v>
    <v>       0.66666811       0.33333189       0.45027435 </v>
    <v>       0.33333185       0.66666815       0.32459952 </v>
   </varray>
  </structure>
  <varray name="forces" >
   <v>      -0.00000000      -0.00000000       0.01076801 </v>
   <v>       0.00000000      -0.00000000       0.01330192 </v>
   <v>      -0.00000000       0.00000000       0.02291234 </v>
   <v>      -0.00000000       0.00000000      -0.02019517 </v>
   <v>      -0.00000000      -0.00000000      -0.01782381 </v>
   <v>      -0.00000000       0.00000000      -0.04136546 </v>
   <v>      -0.00000000       0.00000000       0.03240217 </v>
  </varray>
  <varray name="stress" >
   <v>      -1.01679291       0.00000000      -0.00000000 </v>
   <v>       0.00000000      -1.01679968       0.00000000 </v>
   <v>      -0.00000000       0.00000000       1.17369520 </v>
  </varray>
  <energy>
   <i name="e_fr_energy">    -21.99928885 </i>
   <i name="e_wo_entrp">    -21.99928885 </i>
   <i name="e_0_energy">    -21.99928885 </i>
  </energy>
  <time name="totalsc">   73.58   74.07</time>
 </calculation>
 <calculation>
  <scstep>
   <time name="dav">   20.01   20.15</time>
   <time name="total">   20.90   21.04</time>
   <energy>
    <i name="alphaZ">    105.95841681 </i>
    <i name="ewald">  13596.40355308 </i>
    <i name="hartreedc"> -19233.70706390 </i>
    <i name="XCdc">    185.09937060 </i>
    <i name="pawpsdc">   6554.82425059 </i>
    <i name="pawaedc">  -6869.23743490 </i>
    <i name="eentropy">     -0.00000000 </i>
    <i name="bandstr">   -524.05395597 </i>
    <i name="atom">   6163.92622259 </i>
    <i name="e_fr_energy">    -20.78664110 </i>
    <i name="e_wo_entrp">    -20.78664110 </i>
    <i name="e_0_energy">    -20.78664110 </i>
   </energy>
  </scstep>
  <scstep>
   <time name="dav">   27.84   28.03</time>
   <time name="total">   28.76   28.95</time>
   <energy>
    <i name="e_fr_energy">    -20.78639792 </i>
    <i name="e_wo_entrp">    -20.78639792 </i>
    <i name="e_0_energy">    -20.78639792 </i>
   </energy>
  </scstep>
  <scstep>
   <time name="dav">   26.95   27.13</time>
   <time name="total">   27.29   27.47</time>
   <energy>
    <i name="alphaZ">    105.95841681 </i>
    <i name="ewald">  13596.40355308 </i>
    <i name="hartreedc"> -19232.60261233 </i>
    <i name="XCdc">    185.03995661 </i>
    <i name="pawpsdc">   6558.02408156 </i>
    <i name="pawaedc">  -6872.35393302 </i>
    <i name="eentropy">     -0.00000000 </i>
    <i name="bandstr">   -525.18200704 </i>
    <i name="atom">   6163.92622259 </i>
    <i name="e_fr_energy">    -20.78632175 </i>
    <i name="e_wo_entrp">    -20.78632175 </i>
    <i name="e_0_energy">    -20.78632175 </i>
   </energy>
  </scstep>
  <structure>
   <crystal>
    <varray name="basis" >
     <v>       3.89022147       0.00000000       0.00000000 </v>
     <v>      -1.94511073       3.36904182       0.00000000 </v>
     <v>       0.00000000       0.00000000      25.00000000 </v>
    </varray>
    <i name="volume">    327.65797031 </i>
    <varray name="rec_basis" >
     <v>       0.25705477       0.14841015       0.00000000 </v>
     <v>       0.00000000       0.29682030       0.00000000 </v>
     <v>       0.00000000       0.00000000       0.04000000 </v>
    </varray>
   </crystal>
   <varray name="positions" >
    <v>       0.99999999       0.00000001       0.62574233 </v>
    <v>       0.66666977       0.33333023       0.68341103 </v>
    <v>       0.33333025       0.66666975       0.56865001 </v>
    <v>       0.66666822       0.33333178       0.34661468 </v>
    <v>       0.33333181       0.66666819       0.42863510 </v>
    <v>       0.66666811       0.33333189       0.45023469 </v>
    <v>       0.33333185       0.66666815       0.32446216 </v>
   </varray>
  </structure>
  <varray name="forces" >
   <v>      -0.00000000       0.00000000       0.00564754 </v>
   <v>       0.00000000       0.00000000       0.02645422 </v>
   <v>       0.00000000      -0.00000000       0.02610795 </v>
   <v>      -0.00000000       0.00000000      -0.02011054 </v>
   <v>      -0.00000000       0.00000000      -0.02099634 </v>
   <v>      -0.00000000       0.00000000      -0.04409949 </v>
   <v>       0.00000000      -0.00000000       0.02699666 </v>
  </varray>
  <varray name="stress" >
   <v>      -0.81157211       0.00000000      -0.00000000 </v>
   <v>       0.00000000      -0.81157751       0.00000000 </v>
   <v>       0.00000000       0.00000000       1.54630629 </v>
  </varray>
  <energy>
   <i name="e_fr_energy">    -21.99975983 </i>
   <i name="e_wo_entrp">    -21.99975983 </i>
   <i name="e_0_energy">    -21.99975983 </i>
  </energy>
  <time name="totalsc">   96.54   97.18</time>
 </calculation>
 <calculation>
  <scstep>
   <time name="dav">   20.02   20.15</time>
   <time name="total">   21.00   21.14</time>
   <energy>
    <i name="alphaZ">    106.18130648 </i>
    <i name="ewald">  13582.99222490 </i>
    <i name="hartreedc"> -19222.35416392 </i>
    <i name="XCdc">    185.18320054 </i>
    <i name="pawpsdc">   6558.33552443 </i>
    <i name="pawaedc">  -6872.74681724 </i>
    <i name="eentropy">     -0.00000000 </i>
    <i name="bandstr">   -522.30413148 </i>
    <i name="atom">   6163.92622259 </i>
    <i name="e_fr_energy">    -20.78663371 </i>
    <i name="e_wo_entrp">    -20.78663371 </i>
    <i name="e_0_energy">    -20.78663371 </i>
   </energy>
  </scstep>
  <scstep>
   <time name="dav">   27.61   27.79</time>
   <time name="total">   28.52   28.71</time>
   <energy>
    <i name="e_fr_energy">    -20.78576372 </i>
    <i name="e_wo_entrp">    -20.78576372 </i>
    <i name="e_0_energy">    -20.78576372 </i>
   </energy>
  </scstep>
  <scstep>
   <time name="dav">   27.13   27.31</time>
   <time name="total">   27.98   28.16</time>
   <energy>
    <i name="e_fr_energy">    -20.78547414 </i>
    <i name="e_wo_entrp">    -20.78547414 </i>
    <i name="e_0_energy">    -20.78547414 </i>
   </energy>
  </scstep>
  <scstep>
   <time name="dav">   25.14   25.30</time>
   <time name="total">   25.97   26.14</time>
   <energy>
    <i name="e_fr_energy">    -20.78532840 </i>
    <i name="e_wo_entrp">    -20.78532840 </i>
    <i name="e_0_energy">    -20.78532840 </i>
   </energy>
  </scstep>
  <scstep>
   <time name="dav">   21.54   21.69</time>
   <time name="total">   21.82   21.97</time>
   <energy>
    <i name="alphaZ">    106.18130648 </i>
    <i name="ewald">  13582.99222490 </i>
    <i name="hartreedc"> -19219.89502835 </i>
    <i name="XCdc">    185.04667582 </i>
    <i name="pawpsdc">   6563.85779126 </i>
    <i name="pawaedc">  -6878.31804664 </i>
    <i name="eentropy">     -0.00000000 </i>
    <i name="bandstr">   -524.57647110 </i>
    <i name="atom">   6163.92622259 </i>
    <i name="e_fr_energy">    -20.78532504 </i>
    <i name="e_wo_entrp">    -20.78532504 </i>
    <i name="e_0_energy">    -20.78532504 </i>
   </energy>
  </scstep>
  <structure>
   <crystal>
    <varray name="basis" >
     <v>       3.88613627       0.00000000       0.00000000 </v>
     <v>      -1.94306814       3.36550390       0.00000000 </v>
     <v>       0.00000000       0.00000000      25.00000000 </v>
    </varray>
    <i name="volume">    326.97016959 </i>
    <varray name="rec_basis" >
     <v>       0.25732500       0.14856616       0.00000000 </v>
     <v>       0.00000000       0.29713233       0.00000000 </v>
     <v>       0.00000000       0.00000000       0.04000000 </v>
    </varray>
   </crystal>
   <varray name="positions" >
    <v>       0.99999999       0.00000001       0.62614272 </v>
    <v>       0.66666977       0.33333023       0.68363187 </v>
    <v>       0.33333025       0.66666975       0.56883863 </v>
    <v>       0.66666822       0.33333178       0.34634534 </v>
    <v>       0.33333181       0.66666819       0.42844860 </v>
    <v>       0.66666811       0.33333189       0.45015539 </v>
    <v>       0.33333185       0.66666815       0.32418745 </v>
   </varray>
  </structure>
  <varray name="forces" >
   <v>      -0.00000000       0.00000000      -0.03415234 </v>
   <v>       0.00000000      -0.00000000       0.05798636 </v>
   <v>      -0.00000000       0.00000000       0.03409834 </v>
   <v>      -0.00000000       0.00000000      -0.01024352 </v>
   <v>      -0.00000000       0.00000000      -0.01734023 </v>
   <v>       0.00000000      -0.00000000      -0.05064407 </v>
   <v>      -0.00000000       0.00000000       0.02029547 </v>
  </varray>
  <varray name="stress" >
   <v>       0.35220811       0.00000000      -0.00000000 </v>
   <v>       0.00000000       0.35221044       0.00000000 </v>
   <v>       0.00000000       0.00000000       1.38830906 </v>
  </varray>
  <energy>
   <i name="e_fr_energy">    -22.00016933 </i>
   <i name="e_wo_entrp">    -22.00016933 </i>
   <i name="e_0_energy">    -22.00016933 </i>
  </energy>
  <time name="totalsc">  144.05  145.00</time>
 </calculation>
 <calculation>
  <scstep>
   <time name="dav">   19.84   19.97</time>
   <time name="total">   20.78   20.91</time>
   <energy>
    <i name="alphaZ">    106.19569198 </i>
    <i name="ewald">  13568.06315615 </i>
    <i name="hartreedc"> -19205.21255427 </i>
    <i name="XCdc">    185.05499360 </i>
    <i name="pawpsdc">   6563.05210231 </i>
    <i name="pawaedc">  -6877.53217942 </i>
    <i name="eentropy">     -0.00000000 </i>
    <i name="bandstr">   -524.33324937 </i>
    <i name="atom">   6163.92622259 </i>
    <i name="e_fr_energy">    -20.78581643 </i>
    <i name="e_wo_entrp">    -20.78581643 </i>
    <i name="e_0_energy">    -20.78581643 </i>
   </energy>
  </scstep>
  <scstep>
   <time name="dav">   26.47   26.65</time>
   <time name="total">   27.38   27.56</time>
   <energy>
    <i name="e_fr_energy">    -20.78605285 </i>
    <i name="e_wo_entrp">    -20.78605285 </i>
    <i name="e_0_energy">    -20.78605285 </i>
   </energy>
  </scstep>
  <scstep>
   <time name="dav">   22.27   22.42</time>
   <time name="total">   22.63   22.77</time>
   <energy>
    <i name="alphaZ">    106.19569198 </i>
    <i name="ewald">  13568.06315615 </i>
    <i name="hartreedc"> -19205.05030055 </i>
    <i name="XCdc">    185.04749141 </i>
    <i name="pawpsdc">   6563.32996669 </i>
    <i name="pawaedc">  -6877.80036469 </i>
    <i name="eentropy">     -0.00000000 </i>
    <i name="bandstr">   -524.49791252 </i>
    <i name="atom">   6163.92622259 </i>
    <i name="e_fr_energy">    -20.78604896 </i>
    <i name="e_wo_entrp">    -20.78604896 </i>
    <i name="e_0_energy">    -20.78604896 </i>
   </energy>
  </scstep>
  <structure>
   <crystal>
    <varray name="basis" >
     <v>       3.88587305       0.00000000       0.00000000 </v>
     <v>      -1.94293653       3.36527594       0.00000000 </v>
     <v>       0.00000000       0.00000000      25.00000000 </v>
    </varray>
    <i name="volume">    326.92587751 </i>
    <varray name="rec_basis" >
     <v>       0.25734243       0.14857623       0.00000000 </v>
     <v>       0.00000000       0.29715245       0.00000000 </v>
     <v>       0.00000000       0.00000000       0.04000000 </v>
    </varray>
   </crystal>
   <varray name="positions" >
    <v>       0.99999999       0.00000001       0.62623918 </v>
    <v>       0.66666977       0.33333023       0.68377011 </v>
    <v>       0.33333025       0.66666975       0.56893963 </v>
    <v>       0.66666822       0.33333178       0.34624368 </v>
    <v>       0.33333181       0.66666819       0.42836687 </v>
    <v>       0.66666811       0.33333189       0.45007274 </v>
    <v>       0.33333185       0.66666815       0.32411780 </v>
   </varray>
  </structure>
  <varray name="forces" >
   <v>       0.00000000      -0.00000000      -0.03686132 </v>
   <v>      -0.00000000       0.00000000       0.05460546 </v>
   <v>      -0.00000000       0.00000000       0.03141977 </v>
   <v>       0.00000000      -0.00000000      -0.00647829 </v>
   <v>       0.00000000      -0.00000000      -0.01528952 </v>
   <v>       0.00000000      -0.00000000      -0.04640395 </v>
   <v>       0.00000000      -0.00000000       0.01900785 </v>
  </varray>
  <varray name="stress" >
   <v>       0.04880773      -0.00000000       0.00000000 </v>
   <v>       0.00000000       0.04880805      -0.00000000 </v>
   <v>       0.00000000      -0.00000000       0.97209762 </v>
  </varray>
  <energy>
   <i name="e_fr_energy">    -22.00049775 </i>
   <i name="e_wo_entrp">    -22.00049775 </i>
   <i name="e_0_energy">    -22.00049775 </i>
  </energy>
  <time name="totalsc">   89.97   90.57</time>
 </calculation>
 <calculation>
  <scstep>
   <time name="dav">   19.87   20.01</time>
   <time name="total">   20.82   20.96</time>
   <energy>
    <i name="alphaZ">    106.23886601 </i>
    <i name="ewald">  13523.32457650 </i>
    <i name="hartreedc"> -19160.93611206 </i>
    <i name="XCdc">    185.07070740 </i>
    <i name="pawpsdc">   6563.22707649 </i>
    <i name="pawaedc">  -6877.70331602 </i>
    <i name="eentropy">     -0.00000000 </i>
    <i name="bandstr">   -523.93408893 </i>
    <i name="atom">   6163.92622259 </i>
    <i name="e_fr_energy">    -20.78606802 </i>
    <i name="e_wo_entrp">    -20.78606802 </i>
    <i name="e_0_energy">    -20.78606802 </i>
   </energy>
  </scstep>
  <scstep>
   <time name="dav">   24.33   24.49</time>
   <time name="total">   25.25   25.42</time>
   <energy>
    <i name="e_fr_energy">    -20.78815501 </i>
    <i name="e_wo_entrp">    -20.78815501 </i>
    <i name="e_0_energy">    -20.78815501 </i>
   </energy>
  </scstep>
  <scstep>
   <time name="dav">   27.19   27.36</time>
   <time name="total">   27.55   27.73</time>
   <energy>
    <i name="alphaZ">    106.23886601 </i>
    <i name="ewald">  13523.32457650 </i>
    <i name="hartreedc"> -19160.44775657 </i>
    <i name="XCdc">    185.04996231 </i>
    <i name="pawpsdc">   6564.48910803 </i>
    <i name="pawaedc">  -6878.93864359 </i>
    <i name="eentropy">     -0.00000000 </i>
    <i name="bandstr">   -524.43045700 </i>
    <i name="atom">   6163.92622259 </i>
    <i name="e_fr_energy">    -20.78812171 </i>
    <i name="e_wo_entrp">    -20.78812171 </i>
    <i name="e_0_energy">    -20.78812171 </i>
   </energy>
  </scstep>
  <structure>
   <crystal>
    <varray name="basis" >
     <v>       3.88508339       0.00000000       0.00000000 </v>
     <v>      -1.94254170       3.36459207       0.00000000 </v>
     <v>       0.00000000       0.00000000      25.00000000 </v>
    </varray>
    <i name="volume">    326.79301927 </i>
    <varray name="rec_basis" >
     <v>       0.25739473       0.14860643       0.00000000 </v>
     <v>       0.00000000       0.29721285       0.00000000 </v>
     <v>       0.00000000       0.00000000       0.04000000 </v>
    </varray>
   </crystal>
   <varray name="positions" >
    <v>       0.99999999       0.00000001       0.62652854 </v>
    <v>       0.66666977       0.33333023       0.68418482 </v>
    <v>       0.33333025       0.66666975       0.56924261 </v>
    <v>       0.66666822       0.33333178       0.34593872 </v>
    <v>       0.33333181       0.66666819       0.42812168 </v>
    <v>       0.66666811       0.33333189       0.44982478 </v>
    <v>       0.33333185       0.66666815       0.32390884 </v>
   </varray>
  </structure>
  <varray name="forces" >
   <v>       0.00000000      -0.00000000      -0.01819831 </v>
   <v>      -0.00000000       0.00000000       0.04059514 </v>
   <v>       0.00000000       0.00000000       0.02076574 </v>
   <v>       0.00000000      -0.00000000      -0.00072410 </v>
   <v>       0.00000000      -0.00000000      -0.01339558 </v>
   <v>       0.00000000      -0.00000000      -0.03958866 </v>
   <v>      -0.00000000       0.00000000       0.01054577 </v>
  </varray>
  <varray name="stress" >
   <v>      -0.06588832      -0.00000000       0.00000000 </v>
   <v>      -0.00000000      -0.06588876       0.00000000 </v>
   <v>       0.00000000       0.00000000       0.81830483 </v>
  </varray>
  <energy>
   <i name="e_fr_energy">    -22.00137894 </i>
   <i name="e_wo_entrp">    -22.00137894 </i>
   <i name="e_0_energy">    -22.00137894 </i>
  </energy>
  <time name="totalsc">   93.27   93.88</time>
 </calculation>
 <calculation>
  <scstep>
   <time name="dav">   19.78   19.91</time>
   <time name="total">   20.74   20.87</time>
   <energy>
    <i name="alphaZ">    106.32529310 </i>
    <i name="ewald">  13434.06654266 </i>
    <i name="hartreedc"> -19072.39132939 </i>
    <i name="XCdc">    185.09520720 </i>
    <i name="pawpsdc">   6564.42618640 </i>
    <i name="pawaedc">  -6878.88855524 </i>
    <i name="eentropy">     -0.00000000 </i>
    <i name="bandstr">   -523.34319658 </i>
    <i name="atom">   6163.92622259 </i>
    <i name="e_fr_energy">    -20.78362927 </i>
    <i name="e_wo_entrp">    -20.78362927 </i>
    <i name="e_0_energy">    -20.78362927 </i>
   </energy>
  </scstep>
  <scstep>
   <time name="dav">   23.96   24.12</time>
   <time name="total">   24.81   24.97</time>
   <energy>
    <i name="e_fr_energy">    -20.79195728 </i>
    <i name="e_wo_entrp">    -20.79195728 </i>
    <i name="e_0_energy">    -20.79195728 </i>
   </energy>
  </scstep>
  <scstep>
   <time name="dav">   27.36   27.55</time>
   <time name="total">   28.26   28.44</time>
   <energy>
    <i name="e_fr_energy">    -20.79181758 </i>
    <i name="e_wo_entrp">    -20.79181758 </i>
    <i name="e_0_energy">    -20.79181758 </i>
   </energy>
  </scstep>
  <scstep>
   <time name="dav">   27.52   27.70</time>
   <time name="total">   28.47   28.66</time>
   <energy>
    <i name="e_fr_energy">    -20.79169862 </i>
    <i name="e_wo_entrp">    -20.79169862 </i>
    <i name="e_0_energy">    -20.79169862 </i>
   </energy>
  </scstep>
  <scstep>
   <time name="dav">   27.02   27.20</time>
   <time name="total">   27.39   27.57</time>
   <energy>
    <i name="alphaZ">    106.32529310 </i>
    <i name="ewald">  13434.06654266 </i>
    <i name="hartreedc"> -19071.18915886 </i>
    <i name="XCdc">    185.04322199 </i>
    <i name="pawpsdc">   6566.38813242 </i>
    <i name="pawaedc">  -6880.87673078 </i>
    <i name="eentropy">     -0.00000000 </i>
    <i name="bandstr">   -524.47523237 </i>
    <i name="atom">   6163.92622259 </i>
    <i name="e_fr_energy">    -20.79170925 </i>
    <i name="e_wo_entrp">    -20.79170925 </i>
    <i name="e_0_energy">    -20.79170925 </i>
   </energy>
  </scstep>
  <structure>
   <crystal>
    <varray name="basis" >
     <v>       3.88350407       0.00000000       0.00000000 </v>
     <v>      -1.94175203       3.36322432       0.00000000 </v>
     <v>       0.00000000       0.00000000      25.00000000 </v>
    </varray>
    <i name="volume">    326.52738380 </i>
    <varray name="rec_basis" >
     <v>       0.25749941       0.14866686       0.00000000 </v>
     <v>       0.00000000       0.29733372       0.00000000 </v>
     <v>       0.00000000       0.00000000       0.04000000 </v>
    </varray>
   </crystal>
   <varray name="positions" >
    <v>       0.99999999       0.00000001       0.62710728 </v>
    <v>       0.66666977       0.33333023       0.68501425 </v>
    <v>       0.33333025       0.66666975       0.56984858 </v>
    <v>       0.66666822       0.33333178       0.34532879 </v>
    <v>       0.33333181       0.66666819       0.42763131 </v>
    <v>       0.66666811       0.33333189       0.44932888 </v>
    <v>       0.33333185       0.66666815       0.32349092 </v>
   </varray>
  </structure>
  <varray name="forces" >
   <v>       0.00000000      -0.00000000       0.00924479 </v>
   <v>       0.00000000      -0.00000000       0.01822469 </v>
   <v>      -0.00000000       0.00000000       0.00401012 </v>
   <v>       0.00000000      -0.00000000       0.01445810 </v>
   <v>      -0.00000000      -0.00000000      -0.00305427 </v>
   <v>       0.00000000      -0.00000000      -0.03015203 </v>
   <v>      -0.00000000       0.00000000      -0.01273141 </v>
  </varray>
  <varray name="stress" >
   <v>       0.77115735       0.00000000       0.00000000 </v>
   <v>       0.00000000       0.77116246       0.00000000 </v>
   <v>      -0.00000000       0.00000000       0.98252118 </v>
  </varray>
  <energy>
   <i name="e_fr_energy">    -22.00256155 </i>
   <i name="e_wo_entrp">    -22.00256155 </i>
   <i name="e_0_energy">    -22.00256155 </i>
  </energy>
  <time name="totalsc">  150.53  151.52</time>
 </calculation>
 <calculation>
  <scstep>
   <time name="dav">   19.69   19.82</time>
   <time name="total">   20.71   20.85</time>
   <energy>
    <i name="alphaZ">    106.49846397 </i>
    <i name="ewald">  13256.42957070 </i>
    <i name="hartreedc"> -18896.16915261 </i>
    <i name="XCdc">    185.14236248 </i>
    <i name="pawpsdc">   6565.86919160 </i>
    <i name="pawaedc">  -6880.37219959 </i>
    <i name="eentropy">     -0.00000000 </i>
    <i name="bandstr">   -522.08795861 </i>
    <i name="atom">   6163.92622259 </i>
    <i name="e_fr_energy">    -20.76349947 </i>
    <i name="e_wo_entrp">    -20.76349947 </i>
    <i name="e_0_energy">    -20.76349947 </i>
   </energy>
  </scstep>
  <scstep>
   <time name="dav">   23.87   24.02</time>
   <time name="total">   24.79   24.96</time>
   <energy>
    <i name="e_fr_energy">    -20.79806766 </i>
    <i name="e_wo_entrp">    -20.79806766 </i>
    <i name="e_0_energy">    -20.79806766 </i>
   </energy>
  </scstep>
  <scstep>
   <time name="dav">   27.76   27.95</time>
   <time name="total">   28.67   28.86</time>
   <energy>
    <i name="e_fr_energy">    -20.79747813 </i>
    <i name="e_wo_entrp">    -20.79747813 </i>
    <i name="e_0_energy">    -20.79747813 </i>
   </energy>
  </scstep>
  <scstep>
   <time name="dav">   27.42   27.60</time>
   <time name="total">   28.42   28.61</time>
   <energy>
    <i name="e_fr_energy">    -20.79703085 </i>
    <i name="e_wo_entrp">    -20.79703085 </i>
    <i name="e_0_energy">    -20.79703085 </i>
   </energy>
  </scstep>
  <scstep>
   <time name="dav">   26.54   26.72</time>
   <time name="total">   26.89   27.07</time>
   <energy>
    <i name="alphaZ">    106.49846397 </i>
    <i name="ewald">  13256.42957070 </i>
    <i name="hartreedc"> -18893.77097457 </i>
    <i name="XCdc">    185.04205214 </i>
    <i name="pawpsdc">   6570.98115855 </i>
    <i name="pawaedc">  -6885.49197892 </i>
    <i name="eentropy">     -0.00000000 </i>
    <i name="bandstr">   -524.41157497 </i>
    <i name="atom">   6163.92622259 </i>
    <i name="e_fr_energy">    -20.79706050 </i>
    <i name="e_wo_entrp">    -20.79706050 </i>
    <i name="e_0_energy">    -20.79706050 </i>
   </energy>
  </scstep>
  <structure>
   <crystal>
    <varray name="basis" >
     <v>       3.88034543       0.00000000       0.00000000 </v>
     <v>      -1.94017271       3.36048883       0.00000000 </v>
     <v>       0.00000000       0.00000000      25.00000000 </v>
    </varray>
    <i name="volume">    325.99643688 </i>
    <varray name="rec_basis" >
     <v>       0.25770902       0.14878788       0.00000000 </v>
     <v>       0.00000000       0.29757575       0.00000000 </v>
     <v>       0.00000000       0.00000000       0.04000000 </v>
    </varray>
   </crystal>
   <varray name="positions" >
    <v>       0.99999999       0.00000001       0.62826476 </v>
    <v>       0.66666977       0.33333023       0.68667310 </v>
    <v>       0.33333025       0.66666975       0.57106051 </v>
    <v>       0.66666822       0.33333178       0.34410894 </v>
    <v>       0.33333181       0.66666819       0.42665055 </v>
    <v>       0.66666811       0.33333189       0.44833706 </v>
    <v>       0.33333185       0.66666815       0.32265508 </v>
   </varray>
  </structure>
  <varray name="forces" >
   <v>      -0.00000000       0.00000000       0.06639167 </v>
   <v>       0.00000000      -0.00000000      -0.03102208 </v>
   <v>       0.00000000      -0.00000000      -0.02853285 </v>
   <v>      -0.00000000       0.00000000       0.03750157 </v>
   <v>      -0.00000000       0.00000000       0.01280389 </v>
   <v>      -0.00000000       0.00000000      -0.00736137 </v>
   <v>      -0.00000000       0.00000000      -0.04978083 </v>
  </varray>
  <varray name="stress" >
   <v>       1.17459662      -0.00000000       0.00000000 </v>
   <v>      -0.00000000       1.17460439       0.00000000 </v>
   <v>       0.00000000      -0.00000000       0.55593546 </v>
  </varray>
  <energy>
   <i name="e_fr_energy">    -22.00303289 </i>
   <i name="e_wo_entrp">    -22.00303289 </i>
   <i name="e_0_energy">    -22.00303289 </i>
  </energy>
  <time name="totalsc">  148.89  149.87</time>
 </calculation>
 <calculation>
  <scstep>
   <time name="dav">   19.66   19.79</time>
   <time name="total">   20.53   20.66</time>
   <energy>
    <i name="alphaZ">    106.43659890 </i>
    <i name="ewald">  13319.70558492 </i>
    <i name="hartreedc"> -18956.10942456 </i>
    <i name="XCdc">    185.00394948 </i>
    <i name="pawpsdc">   6569.78905649 </i>
    <i name="pawaedc">  -6884.32026418 </i>
    <i name="eentropy">     -0.00000000 </i>
    <i name="bandstr">   -525.22296766 </i>
    <i name="atom">   6163.92622259 </i>
    <i name="e_fr_energy">    -20.79124400 </i>
    <i name="e_wo_entrp">    -20.79124400 </i>
    <i name="e_0_energy">    -20.79124400 </i>
   </energy>
  </scstep>
  <scstep>
   <time name="dav">   24.54   24.71</time>
   <time name="total">   25.41   25.58</time>
   <energy>
    <i name="e_fr_energy">    -20.79556965 </i>
    <i name="e_wo_entrp">    -20.79556965 </i>
    <i name="e_0_energy">    -20.79556965 </i>
   </energy>
  </scstep>
  <scstep>
   <time name="dav">   27.40   27.58</time>
   <time name="total">   27.71   27.90</time>
   <energy>
    <i name="alphaZ">    106.43659890 </i>
    <i name="ewald">  13319.70558492 </i>
    <i name="hartreedc"> -18956.82394409 </i>
    <i name="XCdc">    185.03361949 </i>
    <i name="pawpsdc">   6568.39937913 </i>
    <i name="pawaedc">  -6883.00472500 </i>
    <i name="eentropy">     -0.00000000 </i>
    <i name="bandstr">   -524.46823705 </i>
    <i name="atom">   6163.92622259 </i>
    <i name="e_fr_energy">    -20.79550111 </i>
    <i name="e_wo_entrp">    -20.79550111 </i>
    <i name="e_0_energy">    -20.79550111 </i>
   </energy>
  </scstep>
  <structure>
   <crystal>
    <varray name="basis" >
     <v>       3.88147296       0.00000000       0.00000000 </v>
     <v>      -1.94073648       3.36146532       0.00000000 </v>
     <v>       0.00000000       0.00000000      25.00000000 </v>
    </varray>
    <i name="volume">    326.18591861 </i>
    <varray name="rec_basis" >
     <v>       0.25763415       0.14874466       0.00000000 </v>
     <v>       0.00000000       0.29748931       0.00000000 </v>
     <v>       0.00000000       0.00000000       0.04000000 </v>
    </varray>
   </crystal>
   <varray name="positions" >
    <v>       0.99999999       0.00000001       0.62785158 </v>
    <v>       0.66666977       0.33333023       0.68608094 </v>
    <v>       0.33333025       0.66666975       0.57062789 </v>
    <v>       0.66666822       0.33333178       0.34454439 </v>
    <v>       0.33333181       0.66666819       0.42700065 </v>
    <v>       0.66666811       0.33333189       0.44869111 </v>
    <v>       0.33333185       0.66666815       0.32295345 </v>
   </varray>
  </structure>
  <varray name="forces" >
   <v>      -0.00000000       0.00000000       0.04175724 </v>
   <v>       0.00000000       0.00000000      -0.00806839 </v>
   <v>       0.00000000      -0.00000000      -0.01095449 </v>
   <v>      -0.00000000       0.00000000       0.02880591 </v>
   <v>      -0.00000000       0.00000000       0.00947957 </v>
   <v>      -0.00000000      -0.00000000      -0.01880766 </v>
   <v>      -0.00000000       0.00000000      -0.04221218 </v>
  </varray>
  <varray name="stress" >
   <v>       0.92377974       0.00000000       0.00000000 </v>
   <v>       0.00000000       0.92378586      -0.00000000 </v>
   <v>      -0.00000000      -0.00000000       0.05368336 </v>
  </varray>
  <energy>
   <i name="e_fr_energy">    -22.00322442 </i>
   <i name="e_wo_entrp">    -22.00322442 </i>
   <i name="e_0_energy">    -22.00322442 </i>
  </energy>
  <time name="totalsc">   93.04   93.66</time>
 </calculation>
 <calculation>
  <scstep>
   <time name="dav">   19.80   19.93</time>
   <time name="total">   20.75   20.89</time>
   <energy>
    <i name="alphaZ">    106.14458044 </i>
    <i name="ewald">  13226.21641024 </i>
    <i name="hartreedc"> -18859.27870110 </i>
    <i name="XCdc">    184.81273361 </i>
    <i name="pawpsdc">   6567.41223250 </i>
    <i name="pawaedc">  -6882.00058064 </i>
    <i name="eentropy">     -0.00000000 </i>
    <i name="bandstr">   -528.03667806 </i>
    <i name="atom">   6163.92622259 </i>
    <i name="e_fr_energy">    -20.80378042 </i>
    <i name="e_wo_entrp">    -20.80378042 </i>
    <i name="e_0_energy">    -20.80378042 </i>
   </energy>
  </scstep>
  <scstep>
   <time name="dav">   26.06   26.23</time>
   <time name="total">   26.98   27.16</time>
   <energy>
    <i name="e_fr_energy">    -20.80245772 </i>
    <i name="e_wo_entrp">    -20.80245772 </i>
    <i name="e_0_energy">    -20.80245772 </i>
   </energy>
  </scstep>
  <scstep>
[...]
       <r>   -3.7059    1.0000 </r>
       <r>   -3.1848    1.0000 </r>
       <r>    0.4556    0.0000 </r>
       <r>    1.1445    0.0000 </r>
       <r>    1.8663    0.0000 </r>
       <r>    2.2256    0.0000 </r>
       <r>    2.9307    0.0000 </r>
       <r>    3.5850    0.0000 </r>
       <r>    5.0287    0.0000 </r>
       <r>    5.2642    0.0000 </r>
       <r>    5.3252    0.0000 </r>
       <r>    5.6034    0.0000 </r>
       <r>    6.0362    0.0000 </r>
       <r>    6.1140    0.0000 </r>
       <r>    6.3653    0.0000 </r>
       <r>    6.6048    0.0000 </r>
       <r>    6.8844    0.0000 </r>
       <r>    7.1638    0.0000 </r>
       <r>    7.3369    0.0000 </r>
       <r>    7.4606    0.0000 </r>
       <r>    8.0631    0.0000 </r>
       <r>    8.2245    0.0000 </r>
       <r>    8.7670    0.0000 </r>
       <r>    9.0013    0.0000 </r>
       <r>    9.0889    0.0000 </r>
       <r>    9.6486    0.0000 </r>
       <r>    9.8907    0.0000 </r>
       <r>   10.1057    0.0000 </r>
       <r>   10.2777    0.0000 </r>
       <r>   10.3518    0.0000 </r>
       <r>   10.5349    0.0000 </r>
       <r>   10.7871    0.0000 </r>
       <r>   11.1688    0.0000 </r>
       <r>   11.3003    0.0000 </r>
       <r>   11.5220    0.0000 </r>
      </set>
      <set comment="kpoint 90">
       <r>  -17.3765    1.0000 </r>
       <r>  -17.2689    1.0000 </r>
       <r>  -14.4548    1.0000 </r>
       <r>  -14.2113    1.0000 </r>
       <r>  -10.6300    1.0000 </r>
       <r>  -10.5760    1.0000 </r>
       <r>  -10.3531    1.0000 </r>
       <r>  -10.2321    1.0000 </r>
       <r>  -10.1880    1.0000 </r>
       <r>   -8.7491    1.0000 </r>
       <r>   -8.6297    1.0000 </r>
       <r>   -8.6029    1.0000 </r>
       <r>   -8.5407    1.0000 </r>
       <r>   -8.5069    1.0000 </r>
       <r>   -8.4731    1.0000 </r>
       <r>   -8.4297    1.0000 </r>
       <r>   -8.2865    1.0000 </r>
       <r>   -8.1540    1.0000 </r>
       <r>   -8.0846    1.0000 </r>
       <r>   -7.4615    1.0000 </r>
       <r>   -7.2495    1.0000 </r>
       <r>   -6.8312    1.0000 </r>
       <r>   -6.5459    1.0000 </r>
       <r>   -5.7054    1.0000 </r>
       <r>   -5.5576    1.0000 </r>
       <r>   -4.6311    1.0000 </r>
       <r>   -4.6172    1.0000 </r>
       <r>   -4.4269    1.0000 </r>
       <r>   -4.3151    1.0000 </r>
       <r>   -3.6289    1.0000 </r>
       <r>   -3.1669    1.0000 </r>
       <r>    0.4193    0.0000 </r>
       <r>    0.9855    0.0000 </r>
       <r>    1.7601    0.0000 </r>
       <r>    2.2087    0.0000 </r>
       <r>    2.8732    0.0000 </r>
       <r>    3.5508    0.0000 </r>
       <r>    5.0432    0.0000 </r>
       <r>    5.3161    0.0000 </r>
       <r>    5.4164    0.0000 </r>
       <r>    5.7829    0.0000 </r>
       <r>    5.9062    0.0000 </r>
       <r>    5.9445    0.0000 </r>
       <r>    6.3704    0.0000 </r>
       <r>    6.5949    0.0000 </r>
       <r>    6.8632    0.0000 </r>
       <r>    7.0364    0.0000 </r>
       <r>    7.2708    0.0000 </r>
       <r>    7.5816    0.0000 </r>
       <r>    8.0277    0.0000 </r>
       <r>    8.2836    0.0000 </r>
       <r>    8.9237    0.0000 </r>
       <r>    8.9927    0.0000 </r>
       <r>    9.3234    0.0000 </r>
       <r>    9.5251    0.0000 </r>
       <r>    9.6907    0.0000 </r>
       <r>    9.8730    0.0000 </r>
       <r>   10.3373    0.0000 </r>
       <r>   10.4213    0.0000 </r>
       <r>   10.4968    0.0000 </r>
       <r>   10.8578    0.0000 </r>
       <r>   11.2293    0.0000 </r>
       <r>   11.3116    0.0000 </r>
       <r>   11.5298    0.0000 </r>
      </set>
     </set>
    </set>
   </array>
  </eigenvalues>
  <separator name="orbital magnetization" >
   <v name="MAGDIPOLOUT">      0.00000000      0.00000000      0.00000000</v>
  </separator>
  <dos>
   <i name="efermi">     -2.32132962 </i>
   <total>
    <array>
     <dimension dim="1">gridpoints</dimension>
     <dimension dim="2">spin</dimension>
     <field>energy</field>
     <field>total</field>
     <field>integrated</field>
     <set>
      <set comment="spin 1">
       <r>   -19.3005     0.0000     0.0000 </r>
       <r>   -19.1910     0.0000     0.0000 </r>
       <r>   -19.0815     0.0000     0.0000 </r>
       <r>   -18.9720     0.0000     0.0000 </r>
       <r>   -18.8625     0.0000     0.0000 </r>
       <r>   -18.7530     0.0000     0.0000 </r>
       <r>   -18.6435     0.0000     0.0000 </r>
       <r>   -18.5340     0.0000     0.0000 </r>
       <r>   -18.4245     0.0000     0.0000 </r>
       <r>   -18.3150     0.0000     0.0000 </r>
       <r>   -18.2055     0.0000     0.0000 </r>
       <r>   -18.0960     0.0000     0.0000 </r>
       <r>   -17.9865     0.0000     0.0000 </r>
       <r>   -17.8770     0.0070     0.0008 </r>
       <r>   -17.7675     0.7877     0.0870 </r>
       <r>   -17.6580     2.1243     0.3196 </r>
       <r>   -17.5485     2.7141     0.6168 </r>
       <r>   -17.4390     4.1386     1.0700 </r>
       <r>   -17.3295     8.2859     1.9773 </r>
       <r>   -17.2200    16.6174     3.7969 </r>
       <r>   -17.1105     1.8548     4.0000 </r>
       <r>   -17.0010     0.0002     4.0000 </r>
       <r>   -16.8915     0.0000     4.0000 </r>
       <r>   -16.7820     0.0000     4.0000 </r>
       <r>   -16.6725     0.0000     4.0000 </r>
       <r>   -16.5630     0.0000     4.0000 </r>
       <r>   -16.4535     0.0000     4.0000 </r>
       <r>   -16.3440     0.0000     4.0000 </r>
       <r>   -16.2346     0.0000     4.0000 </r>
       <r>   -16.1251     0.0000     4.0000 </r>
       <r>   -16.0156     0.0000     4.0000 </r>
       <r>   -15.9061     0.0000     4.0000 </r>
       <r>   -15.7966     0.0000     4.0000 </r>
       <r>   -15.6871     0.0000     4.0000 </r>
       <r>   -15.5776     0.0000     4.0000 </r>
       <r>   -15.4681     0.0000     4.0000 </r>
       <r>   -15.3586     0.0041     4.0005 </r>
       <r>   -15.2491     0.4568     4.0505 </r>
       <r>   -15.1396     1.1476     4.1761 </r>
       <r>   -15.0301     1.2509     4.3131 </r>
       <r>   -14.9206     1.3663     4.4627 </r>
       <r>   -14.8111     1.5309     4.6303 </r>
       <r>   -14.7016     1.7569     4.8227 </r>
       <r>   -14.5921     2.6929     5.1176 </r>
       <r>   -14.4826     4.7908     5.6422 </r>
       <r>   -14.3731     6.2418     6.3257 </r>
       <r>   -14.2636     5.9913     6.9817 </r>
       <r>   -14.1541     8.8034     7.9457 </r>
       <r>   -14.0446     0.4962     8.0000 </r>
       <r>   -13.9351     0.0000     8.0000 </r>
       <r>   -13.8256     0.0000     8.0000 </r>
       <r>   -13.7161     0.0000     8.0000 </r>
       <r>   -13.6066     0.0000     8.0000 </r>
       <r>   -13.4971     0.0000     8.0000 </r>
       <r>   -13.3876     0.0000     8.0000 </r>
       <r>   -13.2781     0.0000     8.0000 </r>
       <r>   -13.1686     0.0000     8.0000 </r>
       <r>   -13.0591     0.0000     8.0000 </r>
       <r>   -12.9496     0.0000     8.0000 </r>
       <r>   -12.8401     0.0000     8.0000 </r>
       <r>   -12.7306     0.0000     8.0000 </r>
       <r>   -12.6211     0.0000     8.0000 </r>
       <r>   -12.5116     0.0000     8.0000 </r>
       <r>   -12.4021     0.0000     8.0000 </r>
       <r>   -12.2926     0.0000     8.0000 </r>
       <r>   -12.1831     0.0000     8.0000 </r>
       <r>   -12.0736     0.0000     8.0000 </r>
       <r>   -11.9641     0.0000     8.0000 </r>
       <r>   -11.8546     0.0000     8.0000 </r>
       <r>   -11.7451     0.0000     8.0000 </r>
       <r>   -11.6356     0.0000     8.0000 </r>
       <r>   -11.5261     0.0000     8.0000 </r>
       <r>   -11.4166     0.0000     8.0000 </r>
       <r>   -11.3071     0.0000     8.0000 </r>
       <r>   -11.1976     0.0000     8.0000 </r>
       <r>   -11.0881     0.0000     8.0000 </r>
       <r>   -10.9786     0.0000     8.0000 </r>
       <r>   -10.8691     0.0000     8.0000 </r>
       <r>   -10.7596     0.2341     8.0256 </r>
       <r>   -10.6501     7.3843     8.8342 </r>
       <r>   -10.5406    19.3140    10.9491 </r>
       <r>   -10.4311    13.8259    12.4630 </r>
       <r>   -10.3216    26.4705    15.3615 </r>
       <r>   -10.2121    21.1540    17.6778 </r>
       <r>   -10.1026     2.9345    17.9992 </r>
       <r>    -9.9931     0.0077    18.0000 </r>
       <r>    -9.8836     0.0000    18.0000 </r>
       <r>    -9.7741     0.0000    18.0000 </r>
       <r>    -9.6646     0.0000    18.0000 </r>
       <r>    -9.5551     0.0000    18.0000 </r>
       <r>    -9.4456     0.0000    18.0000 </r>
       <r>    -9.3361     0.0000    18.0000 </r>
       <r>    -9.2266     0.0000    18.0000 </r>
       <r>    -9.1171     0.0000    18.0000 </r>
       <r>    -9.0076     0.0201    18.0022 </r>
       <r>    -8.8981     4.6087    18.5068 </r>
       <r>    -8.7886    12.2980    19.8535 </r>
       <r>    -8.6791    19.7583    22.0170 </r>
       <r>    -8.5696    32.8106    25.6097 </r>
       <r>    -8.4601    35.1096    29.4542 </r>
       <r>    -8.3506    20.2158    31.6678 </r>
       <r>    -8.2411    11.7840    32.9581 </r>
       <r>    -8.1316    29.0505    36.1391 </r>
       <r>    -8.0221    14.0924    37.6822 </r>
       <r>    -7.9126     2.8960    37.9993 </r>
       <r>    -7.8031     0.0060    38.0000 </r>
       <r>    -7.6936     0.0000    38.0000 </r>
       <r>    -7.5841     0.0003    38.0000 </r>
       <r>    -7.4746     1.0179    38.1115 </r>
       <r>    -7.3651     7.0082    38.8789 </r>
       <r>    -7.2556     3.7229    39.2865 </r>
       <r>    -7.1461     3.7902    39.7016 </r>
       <r>    -7.0366     3.7471    40.1119 </r>
       <r>    -6.9271     4.1435    40.5656 </r>
       <r>    -6.8176     2.8177    40.8741 </r>
       <r>    -6.7081     3.6675    41.2757 </r>
       <r>    -6.5986     4.0229    41.7162 </r>
       <r>    -6.4891     4.7066    42.2316 </r>
       <r>    -6.3796     5.7124    42.8571 </r>
       <r>    -6.2701     5.1754    43.4238 </r>
       <r>    -6.1606     5.5499    44.0315 </r>
       <r>    -6.0511     6.7492    44.7705 </r>
       <r>    -5.9416     5.0512    45.3236 </r>
       <r>    -5.8321     4.6068    45.8281 </r>
       <r>    -5.7226     5.2897    46.4073 </r>
       <r>    -5.6131     5.7041    47.0319 </r>
       <r>    -5.5036     7.5966    47.8637 </r>
       <r>    -5.3941     5.0747    48.4194 </r>
       <r>    -5.2846     3.9913    48.8564 </r>
       <r>    -5.1751     3.8400    49.2769 </r>
       <r>    -5.0656     3.4176    49.6511 </r>
       <r>    -4.9562     3.9352    50.0820 </r>
       <r>    -4.8467     5.3932    50.6726 </r>
       <r>    -4.7372    10.6035    51.8336 </r>
       <r>    -4.6277     8.9710    52.8160 </r>
       <r>    -4.5182    12.0410    54.1344 </r>
       <r>    -4.4087    10.1364    55.2444 </r>
       <r>    -4.2992    10.0852    56.3487 </r>
       <r>    -4.1897     4.6324    56.8559 </r>
       <r>    -4.0802     2.7489    57.1569 </r>
       <r>    -3.9707     2.9227    57.4770 </r>
       <r>    -3.8612     3.6506    57.8767 </r>
       <r>    -3.7517     3.1965    58.2267 </r>
       <r>    -3.6422     2.8445    58.5382 </r>
       <r>    -3.5327     2.8725    58.8527 </r>
       <r>    -3.4232     2.4283    59.1186 </r>
       <r>    -3.3137     2.5582    59.3987 </r>
       <r>    -3.2042     3.4791    59.7797 </r>
       <r>    -3.0947     4.6514    60.2890 </r>
       <r>    -2.9852     3.5141    60.6738 </r>
       <r>    -2.8757     4.1197    61.1249 </r>
       <r>    -2.7662     5.8892    61.7698 </r>
       <r>    -2.6567     1.4688    61.9306 </r>
       <r>    -2.5472     0.5875    61.9949 </r>
       <r>    -2.4377     0.0463    62.0000 </r>
       <r>    -2.3282     0.0000    62.0000 </r>
       <r>    -2.2187     0.0000    62.0000 </r>
       <r>    -2.1092     0.0000    62.0000 </r>
       <r>    -1.9997     0.0000    62.0000 </r>
       <r>    -1.8902     0.0000    62.0000 </r>
       <r>    -1.7807     0.0000    62.0000 </r>
       <r>    -1.6712     0.0000    62.0000 </r>
       <r>    -1.5617     0.0000    62.0000 </r>
       <r>    -1.4522     0.0000    62.0000 </r>
       <r>    -1.3427     0.0000    62.0000 </r>
       <r>    -1.2332     0.0000    62.0000 </r>
       <r>    -1.1237     0.0000    62.0000 </r>
       <r>    -1.0142     0.0000    62.0000 </r>
       <r>    -0.9047     0.0000    62.0000 </r>
       <r>    -0.7952     0.0000    62.0000 </r>
       <r>    -0.6857     0.0000    62.0000 </r>
       <r>    -0.5762     0.0000    62.0000 </r>
       <r>    -0.4667     0.0206    62.0023 </r>
       <r>    -0.3572     0.1901    62.0231 </r>
       <r>    -0.2477     0.2998    62.0559 </r>
       <r>    -0.1382     0.2690    62.0853 </r>
       <r>    -0.0287     0.4058    62.1298 </r>
       <r>     0.0808     0.3656    62.1698 </r>
       <r>     0.1903     0.5874    62.2341 </r>
       <r>     0.2998     0.6955    62.3103 </r>
       <r>     0.4093     1.0528    62.4256 </r>
       <r>     0.5188     3.4575    62.8042 </r>
       <r>     0.6283     4.5066    63.2976 </r>
       <r>     0.7378     3.5134    63.6824 </r>
       <r>     0.8473     3.0624    64.0177 </r>
       <r>     0.9568     1.8963    64.2253 </r>
       <r>     1.0663     1.1023    64.3460 </r>
       <r>     1.1758     1.3804    64.4972 </r>
       <r>     1.2853     1.5983    64.6722 </r>
       <r>     1.3948     2.1332    64.9058 </r>
       <r>     1.5043     1.9288    65.1170 </r>
       <r>     1.6138     1.3165    65.2611 </r>
       <r>     1.7233     1.6997    65.4472 </r>
       <r>     1.8328     3.2652    65.8048 </r>
       <r>     1.9423     2.7609    66.1071 </r>
       <r>     2.0518     3.1936    66.4568 </r>
       <r>     2.1613     2.1147    66.6883 </r>
       <r>     2.2708     2.9714    67.0137 </r>
       <r>     2.3803     3.5775    67.4054 </r>
       <r>     2.4898     4.5006    67.8983 </r>
       <r>     2.5993     5.1692    68.4643 </r>
       <r>     2.7088     6.2981    69.1539 </r>
       <r>     2.8183     3.1460    69.4984 </r>
       <r>     2.9278     2.6045    69.7836 </r>
       <r>     3.0373     3.8681    70.2071 </r>
       <r>     3.1468     4.1853    70.6654 </r>
       <r>     3.2563     4.1661    71.1216 </r>
       <r>     3.3658     3.8518    71.5434 </r>
       <r>     3.4753     2.0041    71.7628 </r>
       <r>     3.5848     4.4471    72.2498 </r>
       <r>     3.6943     5.4402    72.8455 </r>
       <r>     3.8038     5.1601    73.4105 </r>
       <r>     3.9133     5.7102    74.0357 </r>
       <r>     4.0228     4.1282    74.4878 </r>
       <r>     4.1323     3.8120    74.9052 </r>
       <r>     4.2418     4.7199    75.4220 </r>
       <r>     4.3513     6.1444    76.0948 </r>
       <r>     4.4608     6.4239    76.7982 </r>
       <r>     4.5703     6.5020    77.5102 </r>
       <r>     4.6798     6.9403    78.2701 </r>
       <r>     4.7893     7.1190    79.0497 </r>
       <r>     4.8988     5.9630    79.7026 </r>
       <r>     5.0083     6.4948    80.4138 </r>
       <r>     5.1178     5.4646    81.0122 </r>
       <r>     5.2273     6.4657    81.7201 </r>
       <r>     5.3368    10.9631    82.9206 </r>
       <r>     5.4463    11.2853    84.1563 </r>
       <r>     5.5558    10.2889    85.2829 </r>
       <r>     5.6653     7.8323    86.1406 </r>
       <r>     5.7748     6.0764    86.8059 </r>
       <r>     5.8843     6.7227    87.5420 </r>
       <r>     5.9938     8.9947    88.5270 </r>
       <r>     6.1033     8.5791    89.4664 </r>
       <r>     6.2128     5.0924    90.0240 </r>
       <r>     6.3223     4.3286    90.4980 </r>
       <r>     6.4317     5.1962    91.0669 </r>
       <r>     6.5412     6.1668    91.7422 </r>
       <r>     6.6507     6.6156    92.4666 </r>
       <r>     6.7602     7.0480    93.2383 </r>
       <r>     6.8697     9.5987    94.2894 </r>
       <r>     6.9792     5.4335    94.8844 </r>
       <r>     7.0887     4.8475    95.4151 </r>
       <r>     7.1982     5.6254    96.0311 </r>
       <r>     7.3077     3.1569    96.3768 </r>
       <r>     7.4172     4.4468    96.8637 </r>
       <r>     7.5267     6.6955    97.5969 </r>
       <r>     7.6362     6.1304    98.2681 </r>
       <r>     7.7457     5.1009    98.8267 </r>
       <r>     7.8552     5.5005    99.4290 </r>
       <r>     7.9647     6.3450   100.1237 </r>
       <r>     8.0742     7.7992   100.9777 </r>
       <r>     8.1837     5.6710   101.5987 </r>
       <r>     8.2932     4.7601   102.1199 </r>
       <r>     8.4027     4.5380   102.6168 </r>
       <r>     8.5122     6.8069   103.3622 </r>
       <r>     8.6217     6.9643   104.1248 </r>
       <r>     8.7312     6.8314   104.8728 </r>
       <r>     8.8407     7.0826   105.6483 </r>
       <r>     8.9502     6.3150   106.3398 </r>
       <r>     9.0597     7.2615   107.1350 </r>
       <r>     9.1692     7.1152   107.9141 </r>
       <r>     9.2787     8.0912   108.8000 </r>
       <r>     9.3882     7.7455   109.6482 </r>
       <r>     9.4977     6.6596   110.3774 </r>
       <r>     9.6072     8.9740   111.3600 </r>
       <r>     9.7167     9.8568   112.4393 </r>
       <r>     9.8262     6.7154   113.1747 </r>
       <r>     9.9357     6.5856   113.8958 </r>
       <r>    10.0452     8.2693   114.8013 </r>
       <r>    10.1547     8.6696   115.7506 </r>
       <r>    10.2642     6.9699   116.5138 </r>
       <r>    10.3737     7.1061   117.2919 </r>
       <r>    10.4832     8.3211   118.2030 </r>
       <r>    10.5927     8.2707   119.1087 </r>
       <r>    10.7022     7.7224   119.9543 </r>
       <r>    10.8117     9.3621   120.9794 </r>
       <r>    10.9212     9.3132   121.9992 </r>
       <r>    11.0307     7.3548   122.8045 </r>
       <r>    11.1402     7.1704   123.5897 </r>
       <r>    11.2497     7.7711   124.4406 </r>
       <r>    11.3592     7.7606   125.2904 </r>
       <r>    11.4687     5.9199   125.9386 </r>
       <r>    11.5782     5.5846   126.5501 </r>
       <r>    11.6877     4.4306   127.0353 </r>
       <r>    11.7972     3.4224   127.4100 </r>
       <r>    11.9067     3.0136   127.7400 </r>
       <r>    12.0162     1.7101   127.9273 </r>
       <r>    12.1257     0.6521   127.9987 </r>
       <r>    12.2352     0.0121   128.0000 </r>
       <r>    12.3447     0.0000   128.0000 </r>
       <r>    12.4542     0.0000   128.0000 </r>
       <r>    12.5637     0.0000   128.0000 </r>
       <r>    12.6732     0.0000   128.0000 </r>
       <r>    12.7827     0.0000   128.0000 </r>
       <r>    12.8922     0.0000   128.0000 </r>
       <r>    13.0017     0.0000   128.0000 </r>
       <r>    13.1112     0.0000   128.0000 </r>
       <r>    13.2207     0.0000   128.0000 </r>
       <r>    13.3302     0.0000   128.0000 </r>
       <r>    13.4397     0.0000   128.0000 </r>
       <r>    13.5492     0.0000   128.0000 </r>
      </set>
     </set>
    </array>
   </total>
  </dos>
 </calculation>
 <structure name="finalpos" >
  <crystal>
   <varray name="basis" >
    <v>       3.88547885       0.00000000       0.00000000 </v>
    <v>      -1.94273942       3.36493455       0.00000000 </v>
    <v>       0.00000000       0.00000000      25.00000000 </v>
   </varray>
   <i name="volume">    326.85955012 </i>
   <varray name="rec_basis" >
    <v>       0.25736854       0.14859130       0.00000000 </v>
    <v>       0.00000000       0.29718260       0.00000000 </v>
    <v>       0.00000000       0.00000000       0.04000000 </v>
   </varray>
  </crystal>
  <varray name="positions" >
   <v>       0.99999999       0.00000001       0.62839999 </v>
   <v>       0.66666977       0.33333023       0.68648049 </v>
   <v>       0.33333025       0.66666975       0.57095881 </v>
   <v>       0.66666822       0.33333178       0.34431882 </v>
   <v>       0.33333181       0.66666819       0.42675078 </v>
   <v>       0.66666811       0.33333189       0.44829630 </v>
   <v>       0.33333185       0.66666815       0.32254481 </v>
  </varray>
 </structure>
</modeling>
