 running   24 mpi-ranks, with    1 threads/rank, on    1 nodes
 distrk:  each k-point on   24 cores,    1 groups
 distr:  one band on   12 cores,    2 groups
 vasp.6.4.0 14Feb23 (build Dec 31 2025 13:57:05) complex                        
  
 POSCAR found type information on POSCAR CdClZnS 
 POSCAR found :  4 types and      61 ions
 Reading from existing POTCAR
 scaLAPACK will be used
 Reading from existing POTCAR
 LDA part: xc-table for Pade appr. of Perdew
 found WAVECAR, reading the header
 POSCAR, INCAR and KPOINTS ok, starting setup
 FFT: planning ... GRIDC
 FFT: planning ... GRID_SOFT
 FFT: planning ... GRID
 reading WAVECAR
 the WAVECAR file was read successfully
 initial charge from wavefunction
 entering main loop
       N       E                     dE             d eps       ncg     rms          rms(c)
DAV:   1    -0.173793243421E+03   -0.17379E+03   -0.40504E-05  8936   0.289E-02    0.158E-02
DAV:   2    -0.173793243148E+03    0.27318E-06   -0.37799E-06 10856   0.124E-02    0.700E-03
DAV:   3    -0.173793242840E+03    0.30824E-06   -0.11364E-06 10896   0.636E-03    0.239E-03
DAV:   4    -0.173793242837E+03    0.31796E-08   -0.18598E-07 10232   0.315E-03    0.124E-03
DAV:   5    -0.173793242886E+03   -0.49564E-07   -0.30152E-08  6736   0.609E-04    0.819E-04
DAV:   6    -0.173793242940E+03   -0.54060E-07   -0.14302E-08  5728   0.356E-04    0.659E-04
DAV:   7    -0.173793242936E+03    0.45839E-08   -0.26614E-09  5120   0.404E-04
   1 F= -.18389224E+03 E0= -.18389224E+03  d E =-.183892E+03
 curvature:   0.00 expect dE= 0.000E+00 dE for cont linesearch  0.000E+00
 trial: gam= 0.00000 g(F)=  0.221E-02 g(S)=  0.000E+00 ort = 0.000E+00 (trialstep = 0.100E+01)
 search vector abs. value=  0.221E-02
 bond charge predicted
       N       E                     dE             d eps       ncg     rms          rms(c)
DAV:   1    -0.173794082408E+03   -0.83947E-03   -0.33264E-01  8528   0.988E-01    0.212E-01
DAV:   2    -0.173794651185E+03   -0.56878E-03   -0.63613E-03  9504   0.147E-01    0.767E-02
DAV:   3    -0.173794637027E+03    0.14159E-04   -0.19434E-04  9552   0.497E-02    0.558E-02
DAV:   4    -0.173794625550E+03    0.11477E-04   -0.42636E-05 11088   0.515E-02    0.358E-02
DAV:   5    -0.173794624244E+03    0.13053E-05   -0.26045E-05 10208   0.163E-02    0.129E-02
DAV:   6    -0.173794624939E+03   -0.69430E-06   -0.72440E-06 10744   0.744E-03    0.707E-03
DAV:   7    -0.173794624679E+03    0.25974E-06   -0.14633E-06 10816   0.885E-03    0.481E-03
DAV:   8    -0.173794624675E+03    0.42783E-08   -0.57640E-07 12888   0.343E-03    0.252E-03
DAV:   9    -0.173794624799E+03   -0.12459E-06   -0.26819E-07 10072   0.221E-03    0.119E-03
DAV:  10    -0.173794624915E+03   -0.11588E-06   -0.93228E-08  8320   0.132E-03    0.775E-04
DAV:  11    -0.173794625016E+03   -0.10106E-06   -0.16864E-08  6312   0.766E-04    0.706E-04
DAV:  12    -0.173794625101E+03   -0.85267E-07   -0.79592E-09  5928   0.504E-04    0.645E-04
DAV:  13    -0.173794625208E+03   -0.10611E-06   -0.52053E-09  5824   0.341E-04    0.636E-04
DAV:  14    -0.173794625285E+03   -0.77438E-07   -0.47001E-09  5856   0.192E-04    0.627E-04
DAV:  15    -0.173794625329E+03   -0.44012E-07   -0.10522E-09  5808   0.149E-04    0.621E-04
DAV:  16    -0.173794625358E+03   -0.28849E-07   -0.58954E-10  5736   0.816E-05    0.620E-04
DAV:  17    -0.173794625385E+03   -0.27372E-07    0.71405E-11  5696   0.574E-05    0.618E-04
DAV:  18    -0.173794625429E+03   -0.43801E-07   -0.46376E-10  5608   0.569E-05    0.617E-04
DAV:  19    -0.173794625440E+03   -0.11314E-07    0.36829E-10  5752   0.355E-05    0.617E-04
DAV:  20    -0.173794625450E+03   -0.10077E-07    0.44074E-10  5496   0.238E-05    0.617E-04
DAV:  21    -0.173794625463E+03   -0.12515E-07    0.46437E-10  5624   0.189E-05    0.617E-04
DAV:  22    -0.173794625472E+03   -0.91168E-08    0.51225E-10  5536   0.178E-05
   2 F= -.18389413E+03 E0= -.18389413E+03  d E =-.188901E-02
 trial-energy change:   -0.001889  1 .order   -0.001886   -0.002208   -0.001564
 step:   3.4278(harm=  3.4278)  dis= 0.00957  next Energy=  -183.896029 (dE=-0.378E-02)
 bond charge predicted
       N       E                     dE             d eps       ncg     rms          rms(c)
DAV:   1    -0.173792090332E+03    0.25351E-02   -0.19609E+00  8528   0.240E+00    0.518E-01
DAV:   2    -0.173795441148E+03   -0.33508E-02   -0.37513E-02  9512   0.359E-01    0.187E-01
DAV:   3    -0.173795360745E+03    0.80403E-04   -0.11559E-03  9560   0.121E-01    0.136E-01
DAV:   4    -0.173795292797E+03    0.67948E-04   -0.25005E-04 11056   0.125E-01    0.875E-02
DAV:   5    -0.173795284570E+03    0.82274E-05   -0.15301E-04 10216   0.389E-02    0.317E-02
DAV:   6    -0.173795288585E+03   -0.40151E-05   -0.42053E-05 10776   0.180E-02    0.171E-02
DAV:   7    -0.173795286849E+03    0.17355E-05   -0.89434E-06 10816   0.216E-02    0.117E-02
DAV:   8    -0.173795286511E+03    0.33779E-06   -0.33516E-06 13288   0.841E-03    0.608E-03
DAV:   9    -0.173795286944E+03   -0.43241E-06   -0.15887E-06 10832   0.521E-03    0.263E-03
DAV:  10    -0.173795287393E+03   -0.44897E-06   -0.52745E-07  9288   0.319E-03    0.128E-03
DAV:  11    -0.173795287820E+03   -0.42700E-06   -0.11117E-07  9856   0.182E-03    0.103E-03
DAV:  12    -0.173795288168E+03   -0.34795E-06   -0.37575E-08  8072   0.114E-03    0.770E-04
DAV:  13    -0.173795288697E+03   -0.52968E-06   -0.18071E-08  6360   0.802E-04    0.688E-04
DAV:  14    -0.173795289001E+03   -0.30340E-06   -0.23250E-08  7024   0.404E-04    0.651E-04
DAV:  15    -0.173795289204E+03   -0.20311E-06   -0.43786E-09  5768   0.312E-04    0.621E-04
DAV:  16    -0.173795289358E+03   -0.15365E-06   -0.41398E-09  5920   0.174E-04    0.615E-04
DAV:  17    -0.173795289492E+03   -0.13429E-06   -0.19299E-09  5720   0.126E-04    0.611E-04
DAV:  18    -0.173795289629E+03   -0.13743E-06   -0.29144E-09  5808   0.105E-04    0.609E-04
DAV:  19    -0.173795289707E+03   -0.78078E-07   -0.86916E-10  5872   0.701E-05    0.608E-04
DAV:  20    -0.173795289767E+03   -0.59677E-07   -0.57551E-10  5704   0.597E-05    0.607E-04
DAV:  21    -0.173795289797E+03   -0.29722E-07    0.79475E-11  5888   0.389E-05    0.607E-04
DAV:  22    -0.173795289815E+03   -0.17819E-07    0.33060E-10  5640   0.262E-05    0.607E-04
DAV:  23    -0.173795289838E+03   -0.22868E-07    0.28207E-10  5752   0.308E-05    0.607E-04
DAV:  24    -0.173795289844E+03   -0.66211E-08    0.49744E-10  5552   0.180E-05
   3 F= -.18389601E+03 E0= -.18389601E+03  d E =-.376979E-02
 curvature:  -1.71 expect dE=-0.306E-02 dE for cont linesearch -0.397E-06
 trial: gam= 0.81914 g(F)=  0.179E-02 g(S)=  0.000E+00 ort =-0.226E-04 (trialstep = 0.102E+01)
 search vector abs. value=  0.323E-02
 bond charge predicted
       N       E                     dE             d eps       ncg     rms          rms(c)
DAV:   1    -0.173795604576E+03   -0.31474E-03   -0.51564E-01  8528   0.119E+00    0.217E-01
DAV:   2    -0.173796328860E+03   -0.72428E-03   -0.80679E-03  9528   0.169E-01    0.897E-02
DAV:   3    -0.173796315295E+03    0.13565E-04   -0.27983E-04  9528   0.648E-02    0.651E-02
DAV:   4    -0.173796302443E+03    0.12852E-04   -0.45340E-05 10928   0.515E-02    0.457E-02
DAV:   5    -0.173796298686E+03    0.37571E-05   -0.38234E-05  9640   0.135E-02    0.200E-02
DAV:   6    -0.173796299647E+03   -0.96080E-06   -0.98792E-06 10696   0.804E-03    0.738E-03
DAV:   7    -0.173796299398E+03    0.24887E-06   -0.92141E-07 10520   0.778E-03    0.545E-03
DAV:   8    -0.173796299234E+03    0.16412E-06   -0.64436E-07 12512   0.418E-03    0.287E-03
DAV:   9    -0.173796299339E+03   -0.10503E-06   -0.42639E-07 11112   0.188E-03    0.101E-03
DAV:  10    -0.173796299413E+03   -0.74215E-07   -0.94490E-08  8448   0.154E-03    0.817E-04
DAV:  11    -0.173796299508E+03   -0.94922E-07   -0.88839E-09  5600   0.505E-04    0.663E-04
DAV:  12    -0.173796299611E+03   -0.10330E-06   -0.54851E-09  5784   0.389E-04    0.619E-04
DAV:  13    -0.173796299696E+03   -0.84794E-07   -0.30805E-09  5736   0.206E-04    0.608E-04
DAV:  14    -0.173796299761E+03   -0.65236E-07   -0.18889E-09  5768   0.134E-04    0.609E-04
DAV:  15    -0.173796299849E+03   -0.87595E-07   -0.26376E-09  5648   0.151E-04    0.606E-04
DAV:  16    -0.173796299893E+03   -0.43867E-07   -0.89908E-10  5928   0.711E-05    0.605E-04
DAV:  17    -0.173796299909E+03   -0.16247E-07    0.13364E-10  5800   0.622E-05    0.604E-04
DAV:  18    -0.173796299935E+03   -0.25713E-07   -0.73988E-11  5568   0.322E-05    0.604E-04
DAV:  19    -0.173796299951E+03   -0.16575E-07    0.15082E-10  5800   0.352E-05    0.603E-04
DAV:  20    -0.173796299956E+03   -0.40309E-08    0.42805E-10  5656   0.239E-05
   4 F= -.18389756E+03 E0= -.18389756E+03  d E =-.154390E-02
 trial-energy change:   -0.001544  1 .order   -0.001545   -0.001795   -0.001296
 step:   3.6507(harm=  3.6507)  dis= 0.01099  next Energy=  -183.899241 (dE=-0.323E-02)
 bond charge predicted
       N       E                     dE             d eps       ncg     rms          rms(c)
DAV:   1    -0.173791920862E+03    0.43791E-02   -0.34746E+00  8528   0.310E+00    0.567E-01
DAV:   2    -0.173796807629E+03   -0.48868E-02   -0.54458E-02  9528   0.440E-01    0.234E-01
DAV:   3    -0.173796717352E+03    0.90277E-04   -0.18837E-03  9568   0.168E-01    0.170E-01
DAV:   4    -0.173796629947E+03    0.87405E-04   -0.30369E-04 10928   0.133E-01    0.119E-01
DAV:   5    -0.173796604431E+03    0.25516E-04   -0.25394E-04  9688   0.352E-02    0.523E-02
DAV:   6    -0.173796611259E+03   -0.68285E-05   -0.66082E-05 10664   0.204E-02    0.191E-02
DAV:   7    -0.173796609828E+03    0.14312E-05   -0.68631E-06 10880   0.211E-02    0.140E-02
DAV:   8    -0.173796608952E+03    0.87584E-06   -0.42892E-06 13008   0.106E-02    0.731E-03
DAV:   9    -0.173796609574E+03   -0.62236E-06   -0.27081E-06 11656   0.489E-03    0.227E-03
DAV:  10    -0.173796610056E+03   -0.48199E-06   -0.63717E-07  9240   0.394E-03    0.150E-03
DAV:  11    -0.173796610637E+03   -0.58112E-06   -0.68263E-08  8320   0.135E-03    0.902E-04
DAV:  12    -0.173796611238E+03   -0.60104E-06   -0.31589E-08  7376   0.938E-04    0.686E-04
DAV:  13    -0.173796611769E+03   -0.53047E-06   -0.18908E-08  6304   0.504E-04    0.626E-04
DAV:  14    -0.173796612225E+03   -0.45614E-06   -0.14217E-08  6168   0.338E-04    0.613E-04
DAV:  15    -0.173796612658E+03   -0.43322E-06   -0.11617E-08  6008   0.341E-04    0.604E-04
DAV:  16    -0.173796612904E+03   -0.24600E-06   -0.55878E-09  6024   0.144E-04    0.600E-04
DAV:  17    -0.173796613101E+03   -0.19716E-06   -0.38529E-09  5840   0.171E-04    0.597E-04
DAV:  18    -0.173796613250E+03   -0.14892E-06   -0.31806E-09  5952   0.896E-05    0.596E-04
DAV:  19    -0.173796613305E+03   -0.54490E-07   -0.49244E-10  5960   0.636E-05    0.596E-04
DAV:  20    -0.173796613336E+03   -0.30741E-07    0.79190E-11  5712   0.424E-05    0.595E-04
DAV:  21    -0.173796613365E+03   -0.29264E-07    0.57436E-11  5768   0.338E-05    0.595E-04
DAV:  22    -0.173796613380E+03   -0.14748E-07    0.32699E-10  5728   0.241E-05    0.595E-04
DAV:  23    -0.173796613382E+03   -0.26848E-08    0.50675E-10  5616   0.174E-05
   5 F= -.18389923E+03 E0= -.18389923E+03  d E =-.321336E-02
 curvature:  -3.34 expect dE=-0.503E-02 dE for cont linesearch -0.196E-07
 trial: gam= 0.83168 g(F)=  0.151E-02 g(S)=  0.000E+00 ort =-0.436E-05 (trialstep = 0.133E+01)
 search vector abs. value=  0.374E-02
 bond charge predicted
       N       E                     dE             d eps       ncg     rms          rms(c)
DAV:   1    -0.173796043776E+03    0.56960E-03   -0.11398E+00  8528   0.175E+00    0.273E-01
DAV:   2    -0.173797316619E+03   -0.12728E-02   -0.14297E-02  9440   0.231E-01    0.117E-01
DAV:   3    -0.173797304467E+03    0.12152E-04   -0.60810E-04  9632   0.886E-02    0.859E-02
DAV:   4    -0.173797281695E+03    0.22772E-04   -0.81743E-05 11064   0.771E-02    0.605E-02
DAV:   5    -0.173797273089E+03    0.86062E-05   -0.49540E-05 10072   0.204E-02    0.330E-02
DAV:   6    -0.173797272907E+03    0.18250E-06   -0.27433E-05  9488   0.152E-02    0.157E-02
DAV:   7    -0.173797273661E+03   -0.75478E-06   -0.12246E-05 10400   0.151E-02    0.109E-02
DAV:   8    -0.173797273616E+03    0.45591E-07   -0.20288E-06 10328   0.727E-03    0.653E-03
DAV:   9    -0.173797273887E+03   -0.27140E-06   -0.12275E-06 10904   0.449E-03    0.321E-03
DAV:  10    -0.173797274222E+03   -0.33474E-06   -0.38964E-07 10048   0.260E-03    0.112E-03
DAV:  11    -0.173797274588E+03   -0.36610E-06   -0.10801E-07  8640   0.132E-03    0.912E-04
DAV:  12    -0.173797274892E+03   -0.30395E-06   -0.28761E-08  7472   0.112E-03    0.684E-04
DAV:  13    -0.173797275246E+03   -0.35452E-06   -0.13933E-08  6176   0.517E-04    0.651E-04
DAV:  14    -0.173797275483E+03   -0.23706E-06   -0.13457E-08  6016   0.353E-04    0.626E-04
DAV:  15    -0.173797275655E+03   -0.17166E-06   -0.34313E-09  5880   0.308E-04    0.600E-04
DAV:  16    -0.173797275889E+03   -0.23426E-06   -0.59729E-09  5968   0.129E-04    0.594E-04
DAV:  17    -0.173797276035E+03   -0.14572E-06   -0.25908E-09  5968   0.147E-04    0.594E-04
DAV:  18    -0.173797276094E+03   -0.59335E-07   -0.17727E-10  5896   0.896E-05    0.594E-04
DAV:  19    -0.173797276189E+03   -0.94376E-07   -0.83570E-10  5712   0.477E-05    0.591E-04
DAV:  20    -0.173797276255E+03   -0.66189E-07   -0.11901E-10  5808   0.478E-05    0.589E-04
DAV:  21    -0.173797276298E+03   -0.42557E-07    0.15796E-10  5792   0.354E-05    0.589E-04
DAV:  22    -0.173797276324E+03   -0.25982E-07    0.36115E-10  5616   0.302E-05    0.589E-04
DAV:  23    -0.173797276345E+03   -0.21617E-07    0.42669E-10  5664   0.190E-05    0.589E-04
DAV:  24    -0.173797276363E+03   -0.18037E-07    0.48924E-10  5552   0.190E-05    0.589E-04
DAV:  25    -0.173797276370E+03   -0.63883E-08    0.57080E-10  5456   0.114E-05
   6 F= -.18390074E+03 E0= -.18390074E+03  d E =-.150878E-02
 trial-energy change:   -0.001509  1 .order   -0.001516   -0.002007   -0.001025
 step:   2.8762(harm=  2.7280)  dis= 0.01122  next Energy=  -183.901318 (dE=-0.209E-02)
 bond charge predicted
       N       E                     dE             d eps       ncg     rms          rms(c)
DAV:   1    -0.173795198074E+03    0.20783E-02   -0.15229E+00  8528   0.202E+00    0.316E-01
DAV:   2    -0.173796900193E+03   -0.17021E-02   -0.19125E-02  9432   0.267E-01    0.135E-01
DAV:   3    -0.173796883700E+03    0.16494E-04   -0.80703E-04  9632   0.102E-01    0.993E-02
DAV:   4    -0.173796853402E+03    0.30298E-04   -0.10900E-04 11056   0.886E-02    0.698E-02
DAV:   5    -0.173796842328E+03    0.11075E-04   -0.66235E-05 10024   0.238E-02    0.379E-02
DAV:   6    -0.173796842832E+03   -0.50396E-06   -0.36315E-05  9528   0.179E-02    0.180E-02
DAV:   7    -0.173796843849E+03   -0.10177E-05   -0.16650E-05 10432   0.176E-02    0.125E-02
DAV:   8    -0.173796843737E+03    0.11189E-06   -0.26541E-06 10360   0.846E-03    0.755E-03
DAV:   9    -0.173796844045E+03   -0.30753E-06   -0.16776E-06 10880   0.526E-03    0.373E-03
DAV:  10    -0.173796844450E+03   -0.40558E-06   -0.53603E-07 10200   0.309E-03    0.126E-03
DAV:  11    -0.173796844895E+03   -0.44420E-06   -0.14587E-07  8760   0.154E-03    0.100E-03
DAV:  12    -0.173796845278E+03   -0.38288E-06   -0.39826E-08  7928   0.129E-03    0.713E-04
DAV:  13    -0.173796845709E+03   -0.43151E-06   -0.16947E-08  6192   0.599E-04    0.661E-04
DAV:  14    -0.173796846021E+03   -0.31185E-06   -0.18273E-08  6392   0.396E-04    0.630E-04
DAV:  15    -0.173796846242E+03   -0.22120E-06   -0.44288E-09  5896   0.362E-04    0.599E-04
DAV:  16    -0.173796846523E+03   -0.28074E-06   -0.73152E-09  6040   0.148E-04    0.594E-04
DAV:  17    -0.173796846724E+03   -0.20071E-06   -0.36640E-09  5944   0.186E-04    0.592E-04
DAV:  18    -0.173796846802E+03   -0.78318E-07   -0.43971E-10  5920   0.100E-04    0.591E-04
DAV:  19    -0.173796846925E+03   -0.12350E-06   -0.13466E-09  5752   0.563E-05    0.588E-04
DAV:  20    -0.173796847011E+03   -0.85231E-07   -0.30043E-10  5880   0.512E-05    0.587E-04
DAV:  21    -0.173796847061E+03   -0.50233E-07    0.16562E-10  5800   0.410E-05    0.586E-04
DAV:  22    -0.173796847096E+03   -0.34684E-07    0.33989E-10  5640   0.312E-05    0.586E-04
DAV:  23    -0.173796847128E+03   -0.32822E-07    0.38451E-10  5720   0.198E-05    0.586E-04
DAV:  24    -0.173796847151E+03   -0.23087E-07    0.50081E-10  5544   0.200E-05    0.586E-04
DAV:  25    -0.173796847159E+03   -0.72832E-08    0.56687E-10  5488   0.119E-05
   7 F= -.18390127E+03 E0= -.18390127E+03  d E =-.204536E-02
 curvature:  -3.35 expect dE=-0.300E-02 dE for cont linesearch -0.493E-05
 trial: gam= 0.63692 g(F)=  0.897E-03 g(S)=  0.000E+00 ort =-0.741E-04 (trialstep = 0.164E+01)
 search vector abs. value=  0.232E-02
 bond charge predicted
       N       E                     dE             d eps       ncg     rms          rms(c)
DAV:   1    -0.173795044333E+03    0.18028E-02   -0.92460E-01  8528   0.162E+00    0.313E-01
DAV:   2    -0.173796544126E+03   -0.14998E-02   -0.16737E-02  9480   0.244E-01    0.124E-01
DAV:   3    -0.173796521747E+03    0.22379E-04   -0.59005E-04  9568   0.889E-02    0.912E-02
DAV:   4    -0.173796497875E+03    0.23872E-04   -0.81815E-05 10944   0.686E-02    0.650E-02
DAV:   5    -0.173796488627E+03    0.92485E-05   -0.60993E-05  9904   0.206E-02    0.318E-02
DAV:   6    -0.173796491123E+03   -0.24965E-05   -0.29233E-05 10760   0.145E-02    0.123E-02
DAV:   7    -0.173796491174E+03   -0.50495E-07   -0.31153E-06 11056   0.137E-02    0.896E-03
DAV:   8    -0.173796490952E+03    0.22176E-06   -0.11438E-06 10904   0.562E-03    0.550E-03
DAV:   9    -0.173796491078E+03   -0.12598E-06   -0.10641E-06 10936   0.453E-03    0.162E-03
DAV:  10    -0.173796491216E+03   -0.13805E-06   -0.38189E-07  9136   0.201E-03    0.114E-03
DAV:  11    -0.173796491352E+03   -0.13631E-06   -0.26518E-08  6952   0.735E-04    0.861E-04
DAV:  12    -0.173796491571E+03   -0.21839E-06   -0.14790E-08  6280   0.786E-04    0.678E-04
DAV:  13    -0.173796491841E+03   -0.27046E-06   -0.13307E-08  6064   0.410E-04    0.688E-04
DAV:  14    -0.173796491938E+03   -0.97374E-07   -0.80710E-09  6040   0.353E-04    0.662E-04
DAV:  15    -0.173796492009E+03   -0.71064E-07   -0.15065E-09  5568   0.153E-04    0.623E-04
DAV:  16    -0.173796492125E+03   -0.11533E-06   -0.19141E-09  5704   0.122E-04    0.600E-04
DAV:  17    -0.173796492297E+03   -0.17239E-06   -0.32880E-09  5768   0.137E-04    0.618E-04
DAV:  18    -0.173796492360E+03   -0.62355E-07   -0.64086E-10  5936   0.957E-05    0.617E-04
DAV:  19    -0.173796492399E+03   -0.39960E-07    0.18527E-12  5624   0.696E-05    0.601E-04
DAV:  20    -0.173796492440E+03   -0.40825E-07   -0.11872E-10  5720   0.548E-05    0.594E-04
DAV:  21    -0.173796492477E+03   -0.36744E-07   -0.59071E-11  5712   0.521E-05    0.593E-04
DAV:  22    -0.173796492493E+03   -0.16247E-07    0.33684E-10  5672   0.327E-05    0.593E-04
DAV:  23    -0.173796492504E+03   -0.10310E-07    0.43920E-10  5504   0.252E-05    0.593E-04
DAV:  24    -0.173796492519E+03   -0.15178E-07    0.45044E-10  5528   0.209E-05    0.593E-04
DAV:  25    -0.173796492526E+03   -0.76834E-08    0.48422E-10  5568   0.136E-05
   8 F= -.18390225E+03 E0= -.18390225E+03  d E =-.975417E-03
 trial-energy change:   -0.000975  1 .order   -0.000976   -0.001396   -0.000556
 step:   2.7301(harm=  2.7301)  dis= 0.00890  next Energy=  -183.902433 (dE=-0.116E-02)
 bond charge predicted
       N       E                     dE             d eps       ncg     rms          rms(c)
DAV:   1    -0.173795161170E+03    0.13313E-02   -0.40530E-01  8528   0.108E+00    0.207E-01
DAV:   2    -0.173795818306E+03   -0.65714E-03   -0.73429E-03  9496   0.162E-01    0.822E-02
DAV:   3    -0.173795808790E+03    0.95162E-05   -0.25949E-04  9552   0.590E-02    0.604E-02
DAV:   4    -0.173795798466E+03    0.10324E-04   -0.35912E-05 10944   0.456E-02    0.430E-02
DAV:   5    -0.173795794572E+03    0.38937E-05   -0.26914E-05  9976   0.136E-02    0.210E-02
DAV:   6    -0.173795795684E+03   -0.11118E-05   -0.12764E-05 10776   0.958E-03    0.812E-03
DAV:   7    -0.173795795720E+03   -0.35834E-07   -0.13290E-06 10848   0.897E-03    0.595E-03
DAV:   8    -0.173795795633E+03    0.86220E-07   -0.49045E-07 10800   0.375E-03    0.368E-03
DAV:   9    -0.173795795698E+03   -0.64974E-07   -0.46588E-07 10552   0.302E-03    0.115E-03
DAV:  10    -0.173795795759E+03   -0.60805E-07   -0.16798E-07  9080   0.134E-03    0.877E-04
DAV:  11    -0.173795795822E+03   -0.62340E-07   -0.10304E-08  6056   0.475E-04    0.727E-04
DAV:  12    -0.173795795926E+03   -0.10480E-06   -0.60246E-09  5768   0.509E-04    0.639E-04
DAV:  13    -0.173795796052E+03   -0.12600E-06   -0.63503E-09  5904   0.282E-04    0.646E-04
DAV:  14    -0.173795796095E+03   -0.42804E-07   -0.36229E-09  5888   0.243E-04    0.634E-04
DAV:  15    -0.173795796129E+03   -0.33942E-07   -0.42959E-10  5544   0.103E-04    0.615E-04
DAV:  16    -0.173795796177E+03   -0.48014E-07   -0.36728E-10  5688   0.787E-05    0.604E-04
DAV:  17    -0.173795796263E+03   -0.85609E-07   -0.14224E-09  5672   0.934E-05    0.610E-04
DAV:  18    -0.173795796295E+03   -0.32633E-07   -0.46917E-11  5824   0.701E-05    0.612E-04
DAV:  19    -0.173795796314E+03   -0.18532E-07    0.37266E-10  5688   0.510E-05    0.605E-04
DAV:  20    -0.173795796333E+03   -0.19179E-07    0.30797E-10  5592   0.322E-05    0.601E-04
DAV:  21    -0.173795796351E+03   -0.17986E-07    0.33374E-10  5616   0.383E-05    0.600E-04
DAV:  22    -0.173795796362E+03   -0.11358E-07    0.44229E-10  5632   0.248E-05    0.600E-04
DAV:  23    -0.173795796369E+03   -0.62209E-08    0.53040E-10  5496   0.171E-05
   9 F= -.18390243E+03 E0= -.18390243E+03  d E =-.115479E-02
 curvature:  -3.72 expect dE=-0.190E-02 dE for cont linesearch -0.120E-06
 trial: gam= 0.46821 g(F)=  0.509E-03 g(S)=  0.000E+00 ort =-0.864E-05 (trialstep = 0.186E+01)
 search vector abs. value=  0.101E-02
 bond charge predicted
       N       E                     dE             d eps       ncg     rms          rms(c)
DAV:   1    -0.173794461154E+03    0.13352E-02   -0.52682E-01  8528   0.126E+00    0.241E-01
DAV:   2    -0.173795335519E+03   -0.87437E-03   -0.99004E-03  9464   0.190E-01    0.984E-02
DAV:   3    -0.173795317053E+03    0.18467E-04   -0.32847E-04  9592   0.637E-02    0.728E-02
DAV:   4    -0.173795301999E+03    0.15053E-04   -0.50581E-05 11104   0.543E-02    0.502E-02
DAV:   5    -0.173795297381E+03    0.46184E-05   -0.32730E-05  9920   0.164E-02    0.255E-02
DAV:   6    -0.173795298195E+03   -0.81407E-06   -0.12484E-05  9912   0.977E-03    0.829E-03
DAV:   7    -0.173795298379E+03   -0.18380E-06   -0.40214E-06 10880   0.112E-02    0.582E-03
DAV:   8    -0.173795298390E+03   -0.11059E-07   -0.97889E-07 10240   0.527E-03    0.385E-03
DAV:   9    -0.173795298533E+03   -0.14289E-06   -0.48247E-07  9872   0.202E-03    0.234E-03
DAV:  10    -0.173795298705E+03   -0.17207E-06   -0.11026E-07  9080   0.184E-03    0.107E-03
DAV:  11    -0.173795298902E+03   -0.19727E-06   -0.27607E-08  7160   0.704E-04    0.717E-04
DAV:  12    -0.173795299074E+03   -0.17233E-06   -0.14925E-08  6344   0.522E-04    0.694E-04
DAV:  13    -0.173795299235E+03   -0.16046E-06   -0.56804E-09  5864   0.408E-04    0.689E-04
DAV:  14    -0.173795299426E+03   -0.19064E-06   -0.74245E-09  5880   0.204E-04    0.651E-04
DAV:  15    -0.173795299592E+03   -0.16612E-06   -0.42061E-09  5856   0.202E-04    0.630E-04
DAV:  16    -0.173795299674E+03   -0.82851E-07   -0.14886E-09  5968   0.142E-04    0.623E-04
DAV:  17    -0.173795299741E+03   -0.66801E-07   -0.75866E-10  5640   0.996E-05    0.618E-04
DAV:  18    -0.173795299828E+03   -0.86824E-07   -0.12536E-09  5800   0.775E-05    0.616E-04
DAV:  19    -0.173795299888E+03   -0.59845E-07   -0.48939E-10  5768   0.581E-05    0.616E-04
DAV:  20    -0.173795299912E+03   -0.24469E-07    0.26963E-10  5784   0.382E-05    0.615E-04
DAV:  21    -0.173795299942E+03   -0.29635E-07    0.20420E-10  5608   0.300E-05    0.614E-04
DAV:  22    -0.173795299966E+03   -0.23880E-07    0.32289E-10  5736   0.313E-05    0.614E-04
DAV:  23    -0.173795299975E+03   -0.86220E-08    0.49469E-10  5576   0.160E-05
  10 F= -.18390308E+03 E0= -.18390308E+03  d E =-.648369E-03
 trial-energy change:   -0.000648  1 .order   -0.000639   -0.000940   -0.000338
 step:   2.7769(harm=  2.9050)  dis= 0.00604  next Energy=  -183.903161 (dE=-0.733E-03)
 reached required accuracy - stopping structural energy minimisation
 writing wavefunctions
   0.613E-04
DAV:  19    -0.173773597728E+03   -0.50190E-07   -0.37285E-10  5848   0.621E-05    0.613E-04
DAV:  20    -0.173773597768E+03   -0.40389E-07   -0.95206E-11  5744   0.455E-05    0.612E-04
DAV:  21    -0.173773597795E+03   -0.27139E-07    0.12349E-10  5760   0.387E-05    0.610E-04
DAV:  22    -0.173773597817E+03   -0.21413E-07    0.23145E-10  5752   0.269E-05    0.610E-04
DAV:  23    -0.173773597824E+03   -0.74288E-08    0.46796E-10  5632   0.228E-05
  10 F= -.18388058E+03 E0= -.18388058E+03  d E =-.672157E-03
 trial-energy change:   -0.000672  1 .order   -0.000669   -0.001005   -0.000332
 step:   2.8675(harm=  2.9089)  dis= 0.00637  next Energy=  -183.880659 (dE=-0.751E-03)
 reached required accuracy - stopping structural energy minimisation
 writing wavefunctions
