 vasp.6.1.2 22Jul20 (build Aug 13 2020 05:42:33) complex                        
  
 executed on             LinuxIFC date 2025.06.20  00:34:51
 running on   32 total cores
 distrk:  each k-point on   32 cores,    1 groups
 distr:  one band on NCORE=  16 cores,    2 groups


--------------------------------------------------------------------------------------------------------


 INCAR:
 POTCAR:    PAW_PBE Cd 06Sep2000                  
 POTCAR:    PAW_PBE Cl 06Sep2000                  
 POTCAR:    PAW_PBE Zn 06Sep2000                  
 POTCAR:    PAW_PBE S 06Sep2000                   
 -----------------------------------------------------------------------------
|                                                                             |
|           W    W    AA    RRRRR   N    N  II  N    N   GGGG   !!!           |
|           W    W   A  A   R    R  NN   N  II  NN   N  G    G  !!!           |
|           W    W  A    A  R    R  N N  N  II  N N  N  G       !!!           |
|           W WW W  AAAAAA  RRRRR   N  N N  II  N  N N  G  GGG   !            |
|           WW  WW  A    A  R   R   N   NN  II  N   NN  G    G                |
|           W    W  A    A  R    R  N    N  II  N    N   GGGG   !!!           |
|                                                                             |
|     For optimal performance we recommend to set                             |
|       NCORE = 4 - approx SQRT(number of cores).                             |
|     NCORE specifies how many cores store one orbital (NPAR=cpu/NCORE).      |
|     This setting can greatly improve the performance of VASP for DFT.       |
|     The default, NCORE=1 might be grossly inefficient on modern             |
|     multi-core architectures or massively parallel machines. Do your        |
|     own testing!!!!                                                         |
|     Unfortunately you need to use the default for GW and RPA                |
|     calculations (for HF NCORE is supported but not extensively tested      |
|     yet).                                                                   |
|                                                                             |
 -----------------------------------------------------------------------------

 POTCAR:    PAW_PBE Cd 06Sep2000                  
   SHA256 =  8b7ca71966beae5276c8bb910adb3ecc013a3354c27473914c94cd54c83be4f7 Cd/POTCAR             
   COPYR  = (c) Copyright 06Sep2000 Georg Kresse                                                    
   COPYR  = This file is part of the software VASP. Any use, copying, and all other rights are regul
   COPYR  = If you do not have a valid VASP license, you may not use, copy or distribute this file. 
   VRHFIN =Cd : s2 d10                                                                              
   LEXCH  = PE                                                                                      
   EATOM  =  1293.1815 eV,   95.0462 Ry                                                             
                                                                                                    
   TITEL  = PAW_PBE Cd 06Sep2000                                                                    
   LULTRA =        F    use ultrasoft PP ?                                                          
   IUNSCR =        1    unscreen: 0-lin 1-nonlin 2-no                                               
   RPACOR =    2.000    partial core radius                                                         
   POMASS =  112.411; ZVAL   =   12.000    mass and valenz                                          
   RCORE  =    2.300    outmost cutoff radius                                                       
   RWIGS  =    2.980; RWIGS  =    1.577    wigner-seitz radius (au A)                               
   ENMAX  =  274.336; ENMIN  =  205.752 eV                                                          
   RCLOC  =    2.054    cutoff for local pot                                                        
   LCOR   =        T    correct aug charges                                                         
   LPAW   =        T    paw PP                                                                      
   EAUG   =  456.106                                                                                
   DEXC   =    0.000                                                                                
   RMAX   =    2.358    core radius for proj-oper                                                   
   RAUG   =    1.300    factor for augmentation sphere                                              
   RDEP   =    2.450    radius for radial grids                                                     
   RDEPT  =    1.955    core radius for aug-charge                                                  
                                                                                                    
   Atomic configuration                                                                             
   12 entries                                                                                       
     n  l   j            E        occ.                                                              
     1  0  0.50    -26519.7817   2.0000                                                             
     2  0  0.50     -3936.9612   2.0000                                                             
     2  1  1.50     -3532.2230   6.0000                                                             
     3  0  0.50      -733.7908   2.0000                                                             
     3  1  1.50      -601.0792   6.0000                                                             
     3  2  2.50      -393.5307  10.0000                                                             
     4  0  0.50      -105.8977   2.0000                                                             
     4  1  1.50       -66.9488   6.0000                                                             
     4  2  2.50       -11.7331  10.0000                                                             
     5  0  0.50        -5.6592   2.0000                                                             
     5  1  0.50        -1.3606   0.0000                                                             
     4  3  2.50        -1.3606   0.0000                                                             
   Description                                                                                      
     l       E           TYP  RCUT    TYP  RCUT                                                     
     2    -11.7331479     23  2.300                                                                 
     2    -13.0937305     23  2.300                                                                 
     0     -5.6591502     23  2.300                                                                 
     0     -1.5561433     23  2.300                                                                 
     1     -2.7211652     23  2.300                                                                 
     1      8.3548275     23  2.300                                                                 
  local pseudopotential read in
  partial core-charges read in
  partial kinetic energy density read in
  atomic valenz-charges read in
  non local Contribution for L=           2  read in
    real space projection operators read in
  non local Contribution for L=           2  read in
    real space projection operators read in
  non local Contribution for L=           0  read in
    real space projection operators read in
  non local Contribution for L=           0  read in
    real space projection operators read in
  non local Contribution for L=           1  read in
    real space projection operators read in
  non local Contribution for L=           1  read in
    real space projection operators read in
    PAW grid and wavefunctions read in
 
   number of l-projection  operators is LMAX  =           6
   number of lm-projection operators is LMMAX =          18
 
 POTCAR:    PAW_PBE Cl 06Sep2000                  
   SHA256 =  9f1b6e6ed4247ac726a768b330d26d7667cc3c95a39ff49c1d064c2d9dcce931 Cl/POTCAR             
   COPYR  = (c) Copyright 06Sep2000 Georg Kresse                                                    
   COPYR  = This file is part of the software VASP. Any use, copying, and all other rights are regul
   COPYR  = If you do not have a valid VASP license, you may not use, copy or distribute this file. 
   VRHFIN =Cl: s2p5                                                                                 
   LEXCH  = PE                                                                                      
   EATOM  =   409.7259 eV,   30.1140 Ry                                                             
                                                                                                    
   TITEL  = PAW_PBE Cl 06Sep2000                                                                    
   LULTRA =        F    use ultrasoft PP ?                                                          
   IUNSCR =        1    unscreen: 0-lin 1-nonlin 2-no                                               
   RPACOR =    1.500    partial core radius                                                         
   POMASS =   35.453; ZVAL   =    7.000    mass and valenz                                          
   RCORE  =    1.900    outmost cutoff radius                                                       
   RWIGS  =    2.100; RWIGS  =    1.111    wigner-seitz radius (au A)                               
   ENMAX  =  262.472; ENMIN  =  196.854 eV                                                          
   ICORE  =        2    local potential                                                             
   LCOR   =        T    correct aug charges                                                         
   LPAW   =        T    paw PP                                                                      
   EAUG   =  356.192                                                                                
   DEXC   =    0.000                                                                                
   RMAX   =    1.945    core radius for proj-oper                                                   
   RAUG   =    1.300    factor for augmentation sphere                                              
   RDEP   =    2.020    radius for radial grids                                                     
   RDEPT  =    1.678    core radius for aug-charge                                                  
                                                                                                    
   Atomic configuration                                                                             
    6 entries                                                                                       
     n  l   j            E        occ.                                                              
     1  0  0.50     -2751.1850   2.0000                                                             
     2  0  0.50      -252.6861   2.0000                                                             
     2  1  1.50      -191.6157   6.0000                                                             
     3  0  0.50       -20.6916   2.0000                                                             
     3  1  0.50        -8.5949   5.0000                                                             
     3  2  1.50        -8.1635   0.0000                                                             
   Description                                                                                      
     l       E           TYP  RCUT    TYP  RCUT                                                     
     0    -20.6915656     23  1.900                                                                 
     0    -22.0521482     23  1.900                                                                 
     1     -8.5948577     23  1.900                                                                 
     1     -5.3847331     23  1.900                                                                 
     2     -8.1634956     23  1.900                                                                 
  local pseudopotential read in
  partial core-charges read in
  partial kinetic energy density read in
  atomic valenz-charges read in
  non local Contribution for L=           0  read in
    real space projection operators read in
  non local Contribution for L=           0  read in
    real space projection operators read in
  non local Contribution for L=           1  read in
    real space projection operators read in
  non local Contribution for L=           1  read in
    real space projection operators read in
    PAW grid and wavefunctions read in
 
   number of l-projection  operators is LMAX  =           4
   number of lm-projection operators is LMMAX =           8
 
 POTCAR:    PAW_PBE Zn 06Sep2000                  
   SHA256 =  501fddbd8274dd8e9725d4f3de27861d7f1e553a7e18441bc79fed8f346e7f23 Zn/POTCAR             
   COPYR  = (c) Copyright 06Sep2000 Georg Kresse                                                    
   COPYR  = This file is part of the software VASP. Any use, copying, and all other rights are regul
   COPYR  = If you do not have a valid VASP license, you may not use, copy or distribute this file. 
   VRHFIN =Zn: d10 p2                                                                               
   LEXCH  = PE                                                                                      
   EATOM  =  1748.8345 eV,  128.5357 Ry                                                             
                                                                                                    
   TITEL  = PAW_PBE Zn 06Sep2000                                                                    
   LULTRA =        F    use ultrasoft PP ?                                                          
   IUNSCR =        1    unscreen: 0-lin 1-nonlin 2-no                                               
   RPACOR =    2.000    partial core radius                                                         
   POMASS =   65.390; ZVAL   =   12.000    mass and valenz                                          
   RCORE  =    2.300    outmost cutoff radius                                                       
   RWIGS  =    2.400; RWIGS  =    1.270    wigner-seitz radius (au A)                               
   ENMAX  =  276.723; ENMIN  =  207.542 eV                                                          
   RCLOC  =    1.828    cutoff for local pot                                                        
   LCOR   =        T    correct aug charges                                                         
   LPAW   =        T    paw PP                                                                      
   EAUG   =  575.892                                                                                
   DEXC   =    0.000                                                                                
   RMAX   =    2.347    core radius for proj-oper                                                   
   RAUG   =    1.300    factor for augmentation sphere                                              
   RDEP   =    2.324    radius for radial grids                                                     
   RDEPT  =    1.788    core radius for aug-charge                                                  
                                                                                                    
   Atomic configuration                                                                             
    9 entries                                                                                       
     n  l   j            E        occ.                                                              
     1  0  0.50     -9524.6913   2.0000                                                             
     2  0  0.50     -1158.1882   2.0000                                                             
     2  1  1.50     -1003.8506   6.0000                                                             
     3  0  0.50      -129.2194   2.0000                                                             
     3  1  1.50       -83.3890   6.0000                                                             
     3  2  2.50       -10.1410  10.0000                                                             
     4  0  0.50        -5.9785   2.0000                                                             
     4  1  0.50        -4.0817   0.0000                                                             
     4  3  2.50        -1.3606   0.0000                                                             
   Description                                                                                      
     l       E           TYP  RCUT    TYP  RCUT                                                     
     2    -10.1410010     23  2.300                                                                 
     2    -11.5015836     23  2.300                                                                 
     0     -5.9785163     23  2.300                                                                 
     0      1.1858015     23  2.300                                                                 
     1     -2.7211652     23  2.300                                                                 
     1     13.2444212     23  2.300                                                                 
  local pseudopotential read in
  partial core-charges read in
  partial kinetic energy density read in
  atomic valenz-charges read in
  non local Contribution for L=           2  read in
    real space projection operators read in
  non local Contribution for L=           2  read in
    real space projection operators read in
  non local Contribution for L=           0  read in
    real space projection operators read in
  non local Contribution for L=           0  read in
    real space projection operators read in
  non local Contribution for L=           1  read in
    real space projection operators read in
  non local Contribution for L=           1  read in
    real space projection operators read in
    PAW grid and wavefunctions read in
 
   number of l-projection  operators is LMAX  =           6
   number of lm-projection operators is LMMAX =          18
 
 POTCAR:    PAW_PBE S 06Sep2000                   
   SHA256 =  0fc7481fb0695f01bdc6462160264c5c84044ae9ec85a907d398b887a2bc3132 S/POTCAR              
   COPYR  = (c) Copyright 06Sep2000 Georg Kresse                                                    
   COPYR  = This file is part of the software VASP. Any use, copying, and all other rights are regul
   COPYR  = If you do not have a valid VASP license, you may not use, copy or distribute this file. 
   VRHFIN =S : s2p4                                                                                 
   LEXCH  = PE                                                                                      
   EATOM  =   276.8230 eV,   20.3459 Ry                                                             
                                                                                                    
   TITEL  = PAW_PBE S 06Sep2000                                                                     
   LULTRA =        F    use ultrasoft PP ?                                                          
   IUNSCR =        1    unscreen: 0-lin 1-nonlin 2-no                                               
   RPACOR =    1.500    partial core radius                                                         
   POMASS =   32.066; ZVAL   =    6.000    mass and valenz                                          
   RCORE  =    1.900    outmost cutoff radius                                                       
   RWIGS  =    2.200; RWIGS  =    1.164    wigner-seitz radius (au A)                               
   ENMAX  =  258.689; ENMIN  =  194.016 eV                                                          
   ICORE  =        2    local potential                                                             
   LCOR   =        T    correct aug charges                                                         
   LPAW   =        T    paw PP                                                                      
   EAUG   =  335.092                                                                                
   DEXC   =    0.000                                                                                
   RMAX   =    1.942    core radius for proj-oper                                                   
   RAUG   =    1.300    factor for augmentation sphere                                              
   RDEP   =    1.954    radius for radial grids                                                     
   RDEPT  =    1.744    core radius for aug-charge                                                  
                                                                                                    
   Atomic configuration                                                                             
    6 entries                                                                                       
     n  l   j            E        occ.                                                              
     1  0  0.50     -2405.8406   2.0000                                                             
     2  0  0.50      -211.7007   2.0000                                                             
     2  1  1.50      -156.4958   6.0000                                                             
     3  0  0.50       -17.2562   2.0000                                                             
     3  1  0.50        -7.0085   4.0000                                                             
     3  2  1.50        -6.8029   0.0000                                                             
   Description                                                                                      
     l       E           TYP  RCUT    TYP  RCUT                                                     
     0    -17.2561641     23  1.900                                                                 
     0    -15.8743224     23  1.900                                                                 
     1     -7.0085400     23  1.900                                                                 
     1     -2.7779785     23  1.900                                                                 
     2     -6.8029130     23  1.900                                                                 
  local pseudopotential read in
  partial core-charges read in
  partial kinetic energy density read in
  atomic valenz-charges read in
  non local Contribution for L=           0  read in
    real space projection operators read in
  non local Contribution for L=           0  read in
    real space projection operators read in
  non local Contribution for L=           1  read in
    real space projection operators read in
  non local Contribution for L=           1  read in
    real space projection operators read in
    PAW grid and wavefunctions read in
 
   number of l-projection  operators is LMAX  =           4
   number of lm-projection operators is LMMAX =           8
 
 -----------------------------------------------------------------------------
|                                                                             |
|               ----> ADVICE to this user running VASP <----                  |
|                                                                             |
|     You have a (more or less) 'large supercell' and for larger cells it     |
|     might be more efficient to use real-space projection operators.         |
|     Therefore, try LREAL= Auto in the INCAR file.                           |
|     Mind: For very accurate calculation, you might also keep the            |
|     reciprocal projection scheme (i.e. LREAL=.FALSE.).                      |
|                                                                             |
 -----------------------------------------------------------------------------

  PAW_PBE Cd 06Sep2000                  :
 energy of atom  1       EATOM=-1293.1815
 kinetic energy error for atom=    0.0063 (will be added to EATOM!!)
  PAW_PBE Cl 06Sep2000                  :
 energy of atom  2       EATOM= -409.7259
 kinetic energy error for atom=    0.0030 (will be added to EATOM!!)
  PAW_PBE Zn 06Sep2000                  :
 energy of atom  3       EATOM=-1748.8345
 kinetic energy error for atom=    0.0029 (will be added to EATOM!!)
  PAW_PBE S 06Sep2000                   :
 energy of atom  4       EATOM= -276.8230
 kinetic energy error for atom=    0.0020 (will be added to EATOM!!)
 
 
 POSCAR: cif2pos.py
  positions in direct lattice
  velocities in cartesian coordinates
 exchange correlation table for  LEXCH =        8
   RHO(1)=    0.500       N(1)  =     2000
   RHO(2)=  100.500       N(2)  =     4000
 


--------------------------------------------------------------------------------------------------------


 ion  position               nearest neighbor table
   1  0.333  0.000  0.628-  21 2.66  24 2.66  13 2.67  10 2.67  12 2.67  22 2.68
   2  0.334  0.333  0.629-  19 2.66  22 2.66  23 2.66  11 2.67  10 2.67  14 2.67
   3  0.333  0.667  0.628-  20 2.66  24 2.66  15 2.67  11 2.67  12 2.67  23 2.68
   4  0.667  0.000  0.628-  27 2.66  25 2.66  24 2.66  16 2.67  13 2.67  15 2.67
   5  0.667  0.333  0.629-  25 2.66  22 2.66  26 2.66  17 2.67  13 2.67  14 2.67
   6  0.667  0.666  0.629-  27 2.66  23 2.66  26 2.66  18 2.67  15 2.67  14 2.67
   7  1.000  0.000  0.628-  27 2.66  19 2.66  21 2.66  16 2.67  10 2.67  18 2.67
   8  1.000  0.333  0.628-  25 2.66  19 2.66  20 2.66  16 2.67  11 2.67  17 2.67
   9  1.000  0.667  0.628-  20 2.66  21 2.66  18 2.67  17 2.67  12 2.67  26 2.68
  10  0.223  0.111  0.686-   2 2.67   1 2.67   7 2.67
  11  0.223  0.445  0.686-   2 2.67   3 2.67   8 2.67
  12  0.222  0.778  0.686-   9 2.67   3 2.67   1 2.67
  13  0.555  0.111  0.686-   5 2.67   1 2.67   4 2.67
  14  0.556  0.444  0.687-   2 2.67   5 2.67   6 2.67
  15  0.555  0.777  0.686-   6 2.67   3 2.67   4 2.67
  16  0.889  0.111  0.687-   4 2.67   7 2.67   8 2.67
  17  0.889  0.445  0.686-   5 2.67   9 2.67   8 2.67
  18  0.889  0.777  0.686-   6 2.67   9 2.67   7 2.67
  19  0.111  0.222  0.571-   8 2.66   7 2.66   2 2.66
  20  0.111  0.555  0.571-   3 2.66   9 2.66   8 2.66
  21  0.111  0.889  0.571-   1 2.66   9 2.66   7 2.66
  22  0.445  0.224  0.570-   5 2.66   2 2.66   1 2.68
  23  0.445  0.555  0.570-   6 2.66   2 2.66   3 2.68
  24  0.445  0.889  0.571-   1 2.66   3 2.66   4 2.66
  25  0.778  0.222  0.571-   8 2.66   4 2.66   5 2.66
  26  0.776  0.555  0.570-   6 2.66   5 2.66   9 2.68
  27  0.778  0.889  0.571-   7 2.66   4 2.66   6 2.66
  28  0.226  0.114  0.344-  54 2.32  57 2.32  56 2.32  46 2.58
  29  0.226  0.446  0.344-  54 2.32  58 2.32  55 2.32  47 2.58
  30  0.222  0.778  0.344-  59 2.31  56 2.31  55 2.31  48 2.62
  31  0.554  0.114  0.344-  60 2.32  57 2.32  59 2.32  49 2.58
  32  0.556  0.444  0.359-  61 2.37  58 2.37  57 2.37  44 2.60  40 2.60  41 2.60
  33  0.554  0.774  0.344-  62 2.32  58 2.32  59 2.32  50 2.58
  34  0.889  0.111  0.344-  54 2.31  60 2.31  62 2.31  51 2.63
  35  0.886  0.446  0.344-  60 2.32  61 2.32  55 2.32  52 2.58
  36  0.886  0.774  0.344-  62 2.32  61 2.32  56 2.32  53 2.58
  37  0.112  0.222  0.427-  51 2.31  46 2.31  47 2.31  54 2.60
  38  0.111  0.555  0.427-  48 2.32  52 2.35  47 2.35  55 2.57
  39  0.111  0.889  0.427-  48 2.32  53 2.35  46 2.35  56 2.57
  40  0.455  0.242  0.424-  46 2.35  49 2.35  57 2.58  32 2.60
  41  0.455  0.545  0.424-  47 2.35  50 2.35  58 2.58  32 2.60
  42  0.445  0.889  0.427-  48 2.32  50 2.35  49 2.35  59 2.57
  43  0.778  0.222  0.427-  51 2.31  49 2.31  52 2.31  60 2.60
  44  0.758  0.545  0.424-  52 2.35  53 2.35  61 2.58  32 2.60
  45  0.778  0.888  0.427-  51 2.31  50 2.31  53 2.31  62 2.60
  46  0.230  0.117  0.447-  37 2.31  40 2.35  39 2.35  28 2.58
  47  0.230  0.446  0.447-  37 2.31  41 2.35  38 2.35  29 2.58
  48  0.222  0.778  0.449-  42 2.32  39 2.32  38 2.32  30 2.62
  49  0.554  0.117  0.447-  43 2.31  40 2.35  42 2.35  31 2.58
  50  0.554  0.770  0.447-  45 2.31  41 2.35  42 2.35  33 2.58
  51  0.889  0.111  0.449-  37 2.31  43 2.31  45 2.31  34 2.63
  52  0.883  0.446  0.447-  43 2.31  44 2.35  38 2.35  35 2.58
  53  0.883  0.770  0.447-  45 2.31  44 2.35  39 2.35  36 2.58
  54  0.112  0.222  0.323-  34 2.31  28 2.32  29 2.32  37 2.60
  55  0.111  0.555  0.324-  30 2.31  35 2.32  29 2.32  38 2.57
  56  0.111  0.889  0.324-  30 2.31  36 2.32  28 2.32  39 2.57
  57  0.448  0.230  0.321-  28 2.32  31 2.32  32 2.37  40 2.58
  58  0.448  0.552  0.321-  29 2.32  33 2.32  32 2.37  41 2.58
  59  0.445  0.889  0.324-  30 2.31  33 2.32  31 2.32  42 2.57
  60  0.778  0.222  0.323-  34 2.31  31 2.32  35 2.32  43 2.60
  61  0.770  0.552  0.321-  35 2.32  36 2.32  32 2.37  44 2.58
  62  0.778  0.888  0.323-  34 2.31  33 2.32  36 2.32  45 2.60
 
 -----------------------------------------------------------------------------
|                                                                             |
|           W    W    AA    RRRRR   N    N  II  N    N   GGGG   !!!           |
|           W    W   A  A   R    R  NN   N  II  NN   N  G    G  !!!           |
|           W    W  A    A  R    R  N N  N  II  N N  N  G       !!!           |
|           W WW W  AAAAAA  RRRRR   N  N N  II  N  N N  G  GGG   !            |
|           WW  WW  A    A  R   R   N   NN  II  N   NN  G    G                |
|           W    W  A    A  R    R  N    N  II  N    N   GGGG   !!!           |
|                                                                             |
|     The determination of the symmetry of your systems shows a strong        |
|     dependence on the tolerance parameter SYMPREC. This is often the        |
|     result of "noise" in the structural parameters (lattice vectors         |
|     and/or ionic positions). Set NWRITE=3 for more details.                 |
|                                                                             |
 -----------------------------------------------------------------------------

  Warning from LATTYP: Got some problem with cell dimensions!
  Tried to take original basis but could not verify dimensions!
  LATTYP: Found a hexagonal cell.
 ALAT       =    11.6564676184
 C/A-ratio  =     2.1447320765
  
  Lattice vectors:
  
 A1 = (   5.8281676200,  10.0948352900,   0.0000000000)
 A2 = (   5.8282323800, -10.0948352900,   0.0000000000)
 A3 = (   0.0000000000,   0.0000000000, -25.0000000000)


Analysis of symmetry for initial positions (statically):
=====================================================================
 Subroutine PRICEL returns:
 Original cell was already a primitive cell.
 

 Routine SETGRP: Setting up the symmetry group for a 
 hexagonal supercell.


 Subroutine GETGRP returns: Found  6 space group operations
 (whereof  2 operations were pure point group operations)
 out of a pool of 24 trial point group operations.


The static configuration has the point symmetry C_1h.
 The point group associated with its full space group is C_3v.


Analysis of symmetry for dynamics (positions and initial velocities):
=====================================================================
 Subroutine PRICEL returns:
 Original cell was already a primitive cell.
 

 Routine SETGRP: Setting up the symmetry group for a 
 hexagonal supercell.


 Subroutine GETGRP returns: Found  6 space group operations
 (whereof  2 operations were pure point group operations)
 out of a pool of 24 trial point group operations.


The dynamic configuration has the point symmetry C_1h.
 The point group associated with its full space group is C_3v.


 Subroutine INISYM returns: Found  6 space group operations
 (whereof  2 operations are pure point group operations),
 and found     1 'primitive' translations


----------------------------------------------------------------------------------------

                                     Primitive cell                                     

  volume of cell :    2941.7360

  direct lattice vectors                    reciprocal lattice vectors
    11.656400000  0.000000000  0.000000000     0.085789781  0.049530553  0.000000000
    -5.828232380 10.094835290  0.000000000     0.000000000  0.099060556  0.000000000
     0.000000000  0.000000000 25.000000000     0.000000000  0.000000000  0.040000000

  length of vectors
    11.656400000 11.656499998 25.000000000     0.099061406  0.099060556  0.040000000

  position of ions in fractional coordinates (direct lattice)
     0.333393925  0.000121562  0.627972603
     0.333502199  0.333417988  0.628601808
     0.333393694  0.666606306  0.627972842
     0.666822105  0.000077384  0.628471379
     0.666582654  0.333417346  0.628601246
     0.666582012  0.666497801  0.628601808
     0.999922236  0.000077764  0.628471723
     0.999922616  0.333177895  0.628471379
     0.999878438  0.666606075  0.627972603
     0.222733334  0.110998787  0.686265053
     0.222732850  0.445068288  0.686265106
     0.222221723  0.777778277  0.686058913
     0.554932382  0.110998581  0.686264858
     0.555555863  0.444444137  0.686714838
     0.554931712  0.777267150  0.686265106
     0.888888852  0.111111148  0.686593267
     0.889001419  0.445067618  0.686264858
     0.889001213  0.777266666  0.686265053
     0.111231566  0.222282240  0.571206720
     0.110882450  0.555098258  0.570855633
     0.110882023  0.889117977  0.570855659
     0.445385493  0.224104360  0.570423091
     0.445385307  0.554614693  0.570423275
     0.444901742  0.889117550  0.570855633
     0.777718357  0.222281643  0.571206509
     0.775895640  0.554614507  0.570423091
     0.777717760  0.888768434  0.571206720
     0.226237620  0.113749906  0.344127820
     0.226236450  0.445820934  0.344127814
     0.222221882  0.777778118  0.344382788
     0.554179517  0.113750662  0.344127768
     0.555555538  0.444444462  0.359240486
     0.554179066  0.773763550  0.344127814
     0.888888937  0.111111063  0.343663542
     0.886249338  0.445820483  0.344127768
     0.886250094  0.773762380  0.344127820
     0.111549682  0.222441486  0.427022336
     0.110783454  0.554900853  0.427163379
     0.110783276  0.889216724  0.427163587
     0.454569048  0.242470209  0.423779024
     0.454566632  0.545433368  0.423778136
     0.445099147  0.889216546  0.427163379
     0.777559108  0.222440892  0.427022473
     0.757529791  0.545430952  0.423779024
     0.777558514  0.888450318  0.427022336
     0.229513493  0.116960949  0.447253893
     0.229512323  0.445885722  0.447254160
     0.222222058  0.777777942  0.449365567
     0.554115061  0.116960605  0.447253849
     0.554114278  0.770487677  0.447254160
     0.888889265  0.111110735  0.448770132
     0.883039395  0.445884939  0.447253849
     0.883039051  0.770486507  0.447253893
     0.111553146  0.222443308  0.322966178
     0.110725417  0.554785641  0.324430258
     0.110725750  0.889274250  0.324429977
     0.448205330  0.229744324  0.320730930
     0.448204990  0.551795010  0.320731683
     0.445214359  0.889274583  0.324430258
     0.777557058  0.222442942  0.322966037
     0.770255676  0.551794670  0.320730930
     0.777556692  0.888446854  0.322966178

  ion indices of the primitive-cell ions
   primitive index   ion index
                 1           1
                 2           2
                 3           3
                 4           4
                 5           5
                 6           6
                 7           7
                 8           8
                 9           9
                10          10
                11          11
                12          12
                13          13
                14          14
                15          15
                16          16
                17          17
                18          18
                19          19
                20          20
                21          21
                22          22
                23          23
                24          24
                25          25
                26          26
                27          27
                28          28
                29          29
                30          30
                31          31
                32          32
                33          33
                34          34
                35          35
                36          36
                37          37
                38          38
                39          39
                40          40
                41          41
                42          42
                43          43
                44          44
                45          45
                46          46
                47          47
                48          48
                49          49
                50          50
                51          51
                52          52
                53          53
                54          54
                55          55
                56          56
                57          57
                58          58
                59          59
                60          60
                61          61
                62          62

----------------------------------------------------------------------------------------

 
 
 KPOINTS: K-Spacing Value to Generate K-Mesh: 0.02

Automatic generation of k-mesh.
Space group operators:
 irot       det(A)        alpha          n_x          n_y          n_z        tau_x        tau_y        tau_z
    1     1.000000     0.000000     1.000000     0.000000     0.000000     0.000000     0.000000     0.000000
    2    -1.000000   180.000000    -0.500003    -0.866024     0.000000     0.000000     0.000000     0.000000
    3     1.000000   120.000000     0.000000     0.000000     1.000000    -0.333333    -0.000000    -0.000000
    4     1.000000   120.000000     0.000000     0.000000    -1.000000     0.000000     0.333333    -0.000000
    5    -1.000000   179.999999     0.500004    -0.866023     0.000000     0.000000     0.333333    -0.000000
    6    -1.000000   180.000000     1.000000     0.000003     0.000000    -0.333333    -0.000000    -0.000000
 
 Subroutine IBZKPT returns following result:
 ===========================================
 
 Found      5 irreducible k-points:
 
 Following reciprocal coordinates:
            Coordinates               Weight
  0.000000  0.000000  0.000000      1.000000
  0.200000 -0.000000  0.000000      6.000000
  0.400000 -0.000000  0.000000      6.000000
  0.200000  0.200000  0.000000      6.000000
  0.400000  0.200000  0.000000      6.000000
 
 Following cartesian coordinates:
            Coordinates               Weight
  0.000000  0.000000  0.000000      1.000000
  0.017158  0.009906  0.000000      6.000000
  0.034316  0.019812  0.000000      6.000000
  0.017158  0.029718  0.000000      6.000000
  0.034316  0.039624  0.000000      6.000000
 


--------------------------------------------------------------------------------------------------------




 Dimension of arrays:
   k-points           NKPTS =      5   k-points in BZ     NKDIM =      5   number of bands    NBANDS=    332
   number of dos      NEDOS =   2001   number of ions     NIONS =     62
   non local maximal  LDIM  =      6   non local SUM 2l+1 LMDIM =     18
   total plane-waves  NPLWV = ******
   max r-space proj   IRMAX =      1   max aug-charges    IRDMAX= 179030
   dimension x,y,z NGX =    90 NGY =   90 NGZ =  192
   dimension x,y,z NGXF=   180 NGYF=  180 NGZF=  384
   support grid    NGXF=   360 NGYF=  360 NGZF=  768
   ions per type =               9  18  18  17
   NGX,Y,Z   is equivalent  to a cutoff of  12.84, 12.84, 12.77 a.u.
   NGXF,Y,Z  is equivalent  to a cutoff of  25.67, 25.67, 25.54 a.u.

 SYSTEM =  unknown system                          
 POSCAR =  cif2pos.py                              

 Startparameter for this run:
   NWRITE =      2    write-flag & timer
   PREC   = accura    normal or accurate (medium, high low for compatibility)
   ISTART =      0    job   : 0-new  1-cont  2-samecut
   ICHARG =      2    charge: 1-file 2-atom 10-const
   ISPIN  =      1    spin polarized calculation?
   LNONCOLLINEAR =      F non collinear calculations
   LSORBIT =      F    spin-orbit coupling
   INIWAV =      1    electr: 0-lowe 1-rand  2-diag
   LASPH  =      T    aspherical Exc in radial PAW
   METAGGA=      F    non-selfconsistent MetaGGA calc.

 Electronic Relaxation 1
   ENCUT  =  500.0 eV  36.75 Ry    6.06 a.u.  21.25 21.25 45.58*2*pi/ulx,y,z
   ENINI  =  500.0     initial cutoff
   ENAUG  =  575.9 eV  augmentation charge cutoff
   NELM   =     60;   NELMIN=  2; NELMDL=  0     # of ELM steps 
   EDIFF  = 0.1E-07   stopping-criterion for ELM
   LREAL  =      F    real-space projection
   NLSPLINE    = F    spline interpolate recip. space projectors
   LCOMPAT=      F    compatible to vasp.4.4
   GGA_COMPAT  = T    GGA compatible to vasp.4.4-vasp.4.6
   LMAXPAW     = -100 max onsite density
   LMAXMIX     =    2 max onsite mixed and CHGCAR
   VOSKOWN=      0    Vosko Wilk Nusair interpolation
   ROPT   =    0.00000   0.00000   0.00000   0.00000
 Ionic relaxation
   EDIFFG = 0.1E-06   stopping-criterion for IOM
   NSW    =      0    number of steps for IOM
   NBLOCK =      1;   KBLOCK =      1    inner block; outer block 
   IBRION =     -1    ionic relax: 0-MD 1-quasi-New 2-CG
   NFREE  =      0    steps in history (QN), initial steepest desc. (CG)
   ISIF   =      2    stress and relaxation
   IWAVPR =     10    prediction:  0-non 1-charg 2-wave 3-comb
   ISYM   =      2    0-nonsym 1-usesym 2-fastsym
   LCORR  =      T    Harris-Foulkes like correction to forces

   POTIM  = 0.5000    time-step for ionic-motion
   TEIN   =    0.0    initial temperature
   TEBEG  =    0.0;   TEEND  =   0.0 temperature during run
   SMASS  =  -3.00    Nose mass-parameter (am)
   estimated Nose-frequenzy (Omega)   =  0.10E-29 period in steps = 0.13E+47 mass=  -0.311E-26a.u.
   SCALEE = 1.0000    scale energy and forces
   NPACO  =    256;   APACO  = 16.0  distance and # of slots for P.C.
   PSTRESS=    0.0 pullay stress

  Mass of Ions in am
   POMASS = 112.41 35.45 65.39 32.07
  Ionic Valenz
   ZVAL   =  12.00  7.00 12.00  6.00
  Atomic Wigner-Seitz radii
   RWIGS  =  -1.00 -1.00 -1.00 -1.00
  virtual crystal weights 
   VCA    =   1.00  1.00  1.00  1.00
   NELECT =     552.0000    total number of electrons
   NUPDOWN=      -1.0000    fix difference up-down

 DOS related values:
   EMIN   =  10.00;   EMAX   =-10.00  energy-range for DOS
   EFERMI =   0.00
   ISMEAR =     0;   SIGMA  =   0.05  broadening in eV -4-tet -1-fermi 0-gaus

 Electronic relaxation 2 (details)
   IALGO  =     38    algorithm
   LDIAG  =      T    sub-space diagonalisation (order eigenvalues)
   LSUBROT=      F    optimize rotation matrix (better conditioning)
   TURBO    =      0    0=normal 1=particle mesh
   IRESTART =      0    0=no restart 2=restart with 2 vectors
   NREBOOT  =      0    no. of reboots
   NMIN     =      0    reboot dimension
   EREF     =   0.00    reference energy to select bands
   IMIX   =      4    mixing-type and parameters
     AMIX     =   0.40;   BMIX     =  1.00
     AMIX_MAG =   1.60;   BMIX_MAG =  1.00
     AMIN     =   0.10
     WC   =   100.;   INIMIX=   1;  MIXPRE=   1;  MAXMIX= -45

 Intra band minimization:
   WEIMIN = 0.0000     energy-eigenvalue tresh-hold
   EBREAK =  0.75E-11  absolut break condition
   DEPER  =   0.30     relativ break condition  

   TIME   =   0.40     timestep for ELM

  volume/ion in A,a.u.               =      47.45       320.19
  Fermi-wavevector in a.u.,A,eV,Ry     =   0.937245  1.771137 11.951750  0.878429
  Thomas-Fermi vector in A             =   2.064337
 
 Write flags
   LWAVE        =      T    write WAVECAR
   LDOWNSAMPLE  =      F    k-point downsampling of WAVECAR
   LCHARG       =      T    write CHGCAR
   LVTOT        =      F    write LOCPOT, total local potential
   LVHAR        =      T    write LOCPOT, Hartree potential only
   LELF         =      F    write electronic localiz. function (ELF)
   LORBIT       =     11    0 simple, 1 ext, 2 COOP (PROOUT), +10 PAW based schemes


 Dipole corrections
   LMONO  =      F    monopole corrections only (constant potential shift)
   LDIPOL =      F    correct potential (dipole corrections)
   IDIPOL =      0    1-x, 2-y, 3-z, 4-all directions 
   EPSILON=  1.0000000 bulk dielectric constant

 Exchange correlation treatment:
   GGA     =    --    GGA type
   LEXCH   =     8    internal setting for exchange type
   VOSKOWN=      0    Vosko Wilk Nusair interpolation
   LHFCALC =     F    Hartree Fock is set to
   LHFONE  =     F    Hartree Fock one center treatment
   AEXX    =    0.0000 exact exchange contribution

 Linear response parameters
   LEPSILON=     F    determine dielectric tensor
   LRPA    =     F    only Hartree local field effects (RPA)
   LNABLA  =     F    use nabla operator in PAW spheres
   LVEL    =     F    velocity operator in full k-point grid
   LINTERFAST=   F  fast interpolation
   KINTER  =     0    interpolate to denser k-point grid
   CSHIFT  =0.1000    complex shift for real part using Kramers Kronig
   OMEGAMAX=  -1.0    maximum frequency
   DEG_THRESHOLD= 0.2000000E-02 threshold for treating states as degnerate
   RTIME   =   -0.100 relaxation time in fs
  (WPLASMAI=    0.000 imaginary part of plasma frequency in eV, 0.658/RTIME)
   DFIELD  = 0.0000000 0.0000000 0.0000000 field for delta impulse in time
 
 Orbital magnetization related:
   ORBITALMAG=     F  switch on orbital magnetization
   LCHIMAG   =     F  perturbation theory with respect to B field
   DQ        =  0.001000  dq finite difference perturbation B field
   LLRAUG    =     F  two centre corrections for induced B field



--------------------------------------------------------------------------------------------------------


 Static calculation
 charge density and potential will be updated during run
 non-spin polarized calculation
 Variant of blocked Davidson
 Davidson routine will perform the subspace rotation
 perform sub-space diagonalisation
    after iterative eigenvector-optimisation
 modified Broyden-mixing scheme, WC =      100.0
 initial mixing is a Kerker type mixing with AMIX =  0.4000 and BMIX =      1.0000
 Hartree-type preconditioning will be used
 using additional bands           56
 reciprocal scheme for non local part
 use partial core corrections
 calculate Harris-corrections to forces 
   (improved forces if not selfconsistent)
 use gradient corrections 
 use of overlap-Matrix (Vanderbilt PP)
 Gauss-broadening in eV      SIGMA  =   0.05


--------------------------------------------------------------------------------------------------------


  energy-cutoff  :      500.00
  volume of cell :     2941.74
      direct lattice vectors                 reciprocal lattice vectors
    11.656400000  0.000000000  0.000000000     0.085789781  0.049530553  0.000000000
    -5.828232380 10.094835290  0.000000000     0.000000000  0.099060556  0.000000000
     0.000000000  0.000000000 25.000000000     0.000000000  0.000000000  0.040000000

  length of vectors
    11.656400000 11.656499998 25.000000000     0.099061406  0.099060556  0.040000000


 
 k-points in units of 2pi/SCALE and weight: K-Spacing Value to Generate K-Mesh: 0.02
   0.00000000  0.00000000  0.00000000       0.040
   0.01715796  0.00990611  0.00000000       0.240
   0.03431591  0.01981222  0.00000000       0.240
   0.01715796  0.02971822  0.00000000       0.240
   0.03431591  0.03962433  0.00000000       0.240
 
 k-points in reciprocal lattice and weights: K-Spacing Value to Generate K-Mesh: 0.02
   0.00000000  0.00000000  0.00000000       0.040
   0.20000000 -0.00000000  0.00000000       0.240
   0.40000000 -0.00000000  0.00000000       0.240
   0.20000000  0.20000000  0.00000000       0.240
   0.40000000  0.20000000  0.00000000       0.240
 
 position of ions in fractional coordinates (direct lattice) 
   0.33339393  0.00012156  0.62797260
   0.33350220  0.33341799  0.62860181
   0.33339369  0.66660631  0.62797284
   0.66682210  0.00007738  0.62847138
   0.66658265  0.33341735  0.62860125
   0.66658201  0.66649780  0.62860181
   0.99992224  0.00007776  0.62847172
   0.99992262  0.33317790  0.62847138
   0.99987844  0.66660607  0.62797260
   0.22273333  0.11099879  0.68626505
   0.22273285  0.44506829  0.68626511
   0.22222172  0.77777828  0.68605891
   0.55493238  0.11099858  0.68626486
   0.55555586  0.44444414  0.68671484
   0.55493171  0.77726715  0.68626511
   0.88888885  0.11111115  0.68659327
   0.88900142  0.44506762  0.68626486
   0.88900121  0.77726667  0.68626505
   0.11123157  0.22228224  0.57120672
   0.11088245  0.55509826  0.57085563
   0.11088202  0.88911798  0.57085566
   0.44538549  0.22410436  0.57042309
   0.44538531  0.55461469  0.57042328
   0.44490174  0.88911755  0.57085563
   0.77771836  0.22228164  0.57120651
   0.77589564  0.55461451  0.57042309
   0.77771776  0.88876843  0.57120672
   0.22623762  0.11374991  0.34412782
   0.22623645  0.44582093  0.34412781
   0.22222188  0.77777812  0.34438279
   0.55417952  0.11375066  0.34412777
   0.55555554  0.44444446  0.35924049
   0.55417907  0.77376355  0.34412781
   0.88888894  0.11111106  0.34366354
   0.88624934  0.44582048  0.34412777
   0.88625009  0.77376238  0.34412782
   0.11154968  0.22244149  0.42702234
   0.11078345  0.55490085  0.42716338
   0.11078328  0.88921672  0.42716359
   0.45456905  0.24247021  0.42377902
   0.45456663  0.54543337  0.42377814
   0.44509915  0.88921655  0.42716338
   0.77755911  0.22244089  0.42702247
   0.75752979  0.54543095  0.42377902
   0.77755851  0.88845032  0.42702234
   0.22951349  0.11696095  0.44725389
   0.22951232  0.44588572  0.44725416
   0.22222206  0.77777794  0.44936557
   0.55411506  0.11696061  0.44725385
   0.55411428  0.77048768  0.44725416
   0.88888927  0.11111073  0.44877013
   0.88303939  0.44588494  0.44725385
   0.88303905  0.77048651  0.44725389
   0.11155315  0.22244331  0.32296618
   0.11072542  0.55478564  0.32443026
   0.11072575  0.88927425  0.32442998
   0.44820533  0.22974432  0.32073093
   0.44820499  0.55179501  0.32073168
   0.44521436  0.88927458  0.32443026
   0.77755706  0.22244294  0.32296604
   0.77025568  0.55179467  0.32073093
   0.77755669  0.88844685  0.32296618
 
 position of ions in cartesian coordinates  (Angst):
   3.88546446  0.00122714 15.69931507
   1.94419752  3.36579967 15.71504520
   0.00103380  6.72928086 15.69932105
   7.77229417  0.00078118 15.71178448
   5.82672027  3.36579319 15.71503114
   3.88544250  6.72818552 15.71504520
  11.65504033  0.00078501 15.71179308
   9.71365978  3.36337597 15.71178448
   7.76984792  6.72927853 15.69931507
   1.94934211  1.12051447 17.15662631
   0.00230179  4.49289106 17.15662765
  -1.94276725  7.85154360 17.15147283
   5.82158829  1.12051240 17.15662145
   3.88545766  4.48659036 17.16787094
   1.93841244  7.84638386 17.15662765
   9.71366243  1.12164874 17.16483168
   7.76859863  4.49288430 17.15662145
   5.83246299  7.84637897 17.15662631
   0.00104708  2.24390260 14.28016801
  -1.94275145  5.60362548 14.27139082
  -3.88950097  8.97549953 14.27139149
   3.88545917  2.26229660 14.26057727
   1.95916598  5.59874398 14.26058188
   0.00396897  8.97549522 14.27139082
   7.76988718  2.24389658 14.28016272
   5.81172771  5.59874210 14.26057727
   3.88544033  8.97197095 14.28016801
   1.97415531  1.14828657  8.60319550
   0.03875456  4.50048890  8.60319535
  -1.94276446  7.85154199  8.60956971
   5.79677283  1.14829420  8.60319421
   3.88545196  4.48659364  8.98101215
   1.95005909  7.81101559  8.60319535
   9.71366390  1.12164788  8.59158856
   7.73213141  4.50048434  8.60319421
   5.82081864  7.81100378  8.60319550
   0.00382704  2.24551016 10.67555840
  -1.94275486  5.60163272 10.67908449
  -3.89122752  8.97649637 10.67908967
   3.88546593  2.44769682 10.59447559
   2.11969808  5.50606001 10.59445340
   0.00569303  8.97649456 10.67908449
   7.76710277  2.24550417 10.67556183
   5.65117192  5.50603562 10.59447559
   3.88543815  8.96875963 10.67555840
   1.99362549  1.18070152 11.18134731
   0.07656184  4.50114292 11.18135400
  -1.94276139  7.85154022 11.23413918
   5.77731321  1.18069804 11.18134622
   1.96839644  7.77794620 11.18135400
   9.71366965  1.12164457 11.21925330
   7.69433936  4.50113502 11.18134622
   5.80248198  7.77793438 11.18134731
   0.00385681  2.24552856  8.07415446
  -1.94275989  5.60046967  8.11075646
  -3.89223335  8.97707708  8.11074942
   3.88545730  2.31923111  8.01827324
   2.00846710  5.57027974  8.01829208
   0.00669774  8.97708044  8.11075646
   7.76706693  2.24552486  8.07415091
   5.76242070  5.57027630  8.01827324
   3.88543710  8.96872465  8.07415446
 


--------------------------------------------------------------------------------------------------------


 k-point   1 :   0.0000 0.0000 0.0000  plane waves:   74803
 k-point   2 :   0.2000-0.0000 0.0000  plane waves:   74695
 k-point   3 :   0.4000-0.0000 0.0000  plane waves:   74663
 k-point   4 :   0.2000 0.2000 0.0000  plane waves:   74689
 k-point   5 :   0.4000 0.2000 0.0000  plane waves:   74676

 maximum and minimum number of plane-waves per node :      4704     4646

 maximum number of plane-waves:     74803
 maximum index in each direction: 
   IXMAX=   21   IYMAX=   21   IZMAX=   45
   IXMIN=  -21   IYMIN=  -21   IZMIN=  -45


 parallel 3D FFT for wavefunctions:
    minimum data exchange during FFTs selected (reduces bandwidth)
 parallel 3D FFT for charge:
    minimum data exchange during FFTs selected (reduces bandwidth)


 total amount of memory used by VASP MPI-rank0   207846. kBytes
=======================================================================

   base      :      30000. kBytes
   nonl-proj :      18128. kBytes
   fftplans  :      62653. kBytes
   grid      :      34136. kBytes
   one-center:         62. kBytes
   wavefun   :      62867. kBytes
 
     INWAV:  cpu time    0.0001: real time    0.0001
 Broyden mixing: mesh for mixing (old mesh)
   NGX = 43   NGY = 43   NGZ = 91
  (NGX  =180   NGY  =180   NGZ  =384)
  gives a total of 168259 points

 initial charge density was supplied:
 charge density of overlapping atoms calculated
 number of electron     552.0000000 magnetization 
 keeping initial charge density in first step


--------------------------------------------------------------------------------------------------------


 Maximum index for augmentation-charges         7680 (set IRDMAX)


--------------------------------------------------------------------------------------------------------


 First call to EWALD:  gamma=   0.124
 Maximum number of real-space cells 4x 4x 2
 Maximum number of reciprocal cells 2x 2x 4

    FEWALD:  cpu time    0.0093: real time    0.0094


--------------------------------------- Iteration      1(   1)  ---------------------------------------


    POTLOK:  cpu time    0.6281: real time    0.6315
    SETDIJ:  cpu time    0.8809: real time    0.8832
     EDDAV:  cpu time   54.3532: real time   54.4854
       DOS:  cpu time    0.0064: real time    0.0065
    --------------------------------------------
      LOOP:  cpu time   55.8688: real time   56.0066

 eigenvalue-minimisations  :  3336
 total energy-change (2. order) : 0.4551890E+04  (-0.2280070E+05)
 number of electron     552.0000000 magnetization 
 augmentation part      552.0000000 magnetization 

 Free energy of the ion-electron system (eV)
  ---------------------------------------------------
  alpha Z        PSCENC =       940.95539792
  Ewald energy   TEWEN  =    115619.65143121
  -Hartree energ DENC   =   -166276.37337283
  -exchange      EXHF   =         0.00000000
  -V(xc)+E(xc)   XCENC  =      1641.73405075
  PAW double counting   =     46516.48950506   -49356.44532682
  entropy T*S    EENTRO =        -0.01529494
  eigenvalues    EBANDS =       267.37890239
  atomic energy  EATOM  =     55198.51496693
  Solvation  Ediel_sol  =         0.00000000
  ---------------------------------------------------
  free energy    TOTEN  =      4551.89025967 eV

  energy without entropy =     4551.90555461  energy(sigma->0) =     4551.89790714


--------------------------------------------------------------------------------------------------------




--------------------------------------- Iteration      1(   2)  ---------------------------------------


     EDDAV:  cpu time   49.7141: real time   49.8362
       DOS:  cpu time    0.0398: real time    0.0398
    --------------------------------------------
      LOOP:  cpu time   49.7538: real time   49.8760

 eigenvalue-minimisations  :  3792
 total energy-change (2. order) :-0.4039384E+04  (-0.3857016E+04)
 number of electron     552.0000000 magnetization 
 augmentation part      552.0000000 magnetization 

 Free energy of the ion-electron system (eV)
  ---------------------------------------------------
  alpha Z        PSCENC =       940.95539792
  Ewald energy   TEWEN  =    115619.65143121
  -Hartree energ DENC   =   -166276.37337283
  -exchange      EXHF   =         0.00000000
  -V(xc)+E(xc)   XCENC  =      1641.73405075
  PAW double counting   =     46516.48950506   -49356.44532682
  entropy T*S    EENTRO =        -0.00000000
  eigenvalues    EBANDS =     -3772.02044219
  atomic energy  EATOM  =     55198.51496693
  Solvation  Ediel_sol  =         0.00000000
  ---------------------------------------------------
  free energy    TOTEN  =       512.50621003 eV

  energy without entropy =      512.50621003  energy(sigma->0) =      512.50621003


--------------------------------------------------------------------------------------------------------




--------------------------------------- Iteration      1(   3)  ---------------------------------------


     EDDAV:  cpu time   40.5414: real time   40.6405
       DOS:  cpu time    0.0406: real time    0.0407
    --------------------------------------------
      LOOP:  cpu time   40.5821: real time   40.6812

 eigenvalue-minimisations  :  3836
 total energy-change (2. order) :-0.6707754E+03  (-0.6651069E+03)
 number of electron     552.0000000 magnetization 
 augmentation part      552.0000000 magnetization 

 Free energy of the ion-electron system (eV)
  ---------------------------------------------------
  alpha Z        PSCENC =       940.95539792
  Ewald energy   TEWEN  =    115619.65143121
  -Hartree energ DENC   =   -166276.37337283
  -exchange      EXHF   =         0.00000000
  -V(xc)+E(xc)   XCENC  =      1641.73405075
  PAW double counting   =     46516.48950506   -49356.44532682
  entropy T*S    EENTRO =        -0.00000000
  eigenvalues    EBANDS =     -4442.79582062
  atomic energy  EATOM  =     55198.51496693
  Solvation  Ediel_sol  =         0.00000000
  ---------------------------------------------------
  free energy    TOTEN  =      -158.26916840 eV

  energy without entropy =     -158.26916840  energy(sigma->0) =     -158.26916840


--------------------------------------------------------------------------------------------------------




--------------------------------------- Iteration      1(   4)  ---------------------------------------


     EDDAV:  cpu time   39.7078: real time   39.8037
       DOS:  cpu time    0.0398: real time    0.0399
    --------------------------------------------
      LOOP:  cpu time   39.7476: real time   39.8436

 eigenvalue-minimisations  :  3736
 total energy-change (2. order) :-0.3568294E+02  (-0.3542969E+02)
 number of electron     552.0000000 magnetization 
 augmentation part      552.0000000 magnetization 

 Free energy of the ion-electron system (eV)
  ---------------------------------------------------
  alpha Z        PSCENC =       940.95539792
  Ewald energy   TEWEN  =    115619.65143121
  -Hartree energ DENC   =   -166276.37337283
  -exchange      EXHF   =         0.00000000
  -V(xc)+E(xc)   XCENC  =      1641.73405075
  PAW double counting   =     46516.48950506   -49356.44532682
  entropy T*S    EENTRO =        -0.00000000
  eigenvalues    EBANDS =     -4478.47875726
  atomic energy  EATOM  =     55198.51496693
  Solvation  Ediel_sol  =         0.00000000
  ---------------------------------------------------
  free energy    TOTEN  =      -193.95210504 eV

  energy without entropy =     -193.95210504  energy(sigma->0) =     -193.95210504


--------------------------------------------------------------------------------------------------------




--------------------------------------- Iteration      1(   5)  ---------------------------------------


     EDDAV:  cpu time   40.5159: real time   40.6148
       DOS:  cpu time    0.0419: real time    0.0420
    CHARGE:  cpu time    1.8808: real time    1.8853
    MIXING:  cpu time    0.0263: real time    0.0265
    --------------------------------------------
      LOOP:  cpu time   42.4650: real time   42.5687

 eigenvalue-minimisations  :  3848
 total energy-change (2. order) :-0.1046311E+01  (-0.1045020E+01)
 number of electron     552.0000010 magnetization 
 augmentation part      163.6937441 magnetization 

 Broyden mixing:
  rms(total) = 0.37083E+01    rms(broyden)= 0.37083E+01
  rms(prec ) = 0.37876E+01
  weight for this iteration     100.00

 Free energy of the ion-electron system (eV)
  ---------------------------------------------------
  alpha Z        PSCENC =       940.95539792
  Ewald energy   TEWEN  =    115619.65143121
  -Hartree energ DENC   =   -166276.37337283
  -exchange      EXHF   =         0.00000000
  -V(xc)+E(xc)   XCENC  =      1641.73405075
  PAW double counting   =     46516.48950506   -49356.44532682
  entropy T*S    EENTRO =        -0.00000000
  eigenvalues    EBANDS =     -4479.52506827
  atomic energy  EATOM  =     55198.51496693
  Solvation  Ediel_sol  =         0.00000000
  ---------------------------------------------------
  free energy    TOTEN  =      -194.99841605 eV

  energy without entropy =     -194.99841605  energy(sigma->0) =     -194.99841605


--------------------------------------------------------------------------------------------------------




--------------------------------------- Iteration      1(   6)  ---------------------------------------


    POTLOK:  cpu time    0.3721: real time    0.3743
    SETDIJ:  cpu time    0.6738: real time    0.6780
     EDDAV:  cpu time   46.3251: real time   46.4366
       DOS:  cpu time    0.0436: real time    0.0437
    CHARGE:  cpu time    1.7626: real time    1.7669
    MIXING:  cpu time    0.0238: real time    0.0239
    --------------------------------------------
      LOOP:  cpu time   49.2010: real time   49.3233

 eigenvalue-minimisations  :  4600
 total energy-change (2. order) : 0.1463427E+02  (-0.2805227E+01)
 number of electron     552.0000010 magnetization 
 augmentation part      166.2000046 magnetization 

 Broyden mixing:
  rms(total) = 0.29805E+01    rms(broyden)= 0.29805E+01
  rms(prec ) = 0.29957E+01
  weight for this iteration     100.00

 eigenvalues of (default mixing * dielectric matrix)
  average eigenvalue GAMMA=   2.2237
  2.2237

 Free energy of the ion-electron system (eV)
  ---------------------------------------------------
  alpha Z        PSCENC =       940.95539792
  Ewald energy   TEWEN  =    115619.65143121
  -Hartree energ DENC   =   -166093.14105658
  -exchange      EXHF   =         0.00000000
  -V(xc)+E(xc)   XCENC  =      1645.46982576
  PAW double counting   =     49751.71849716   -52535.27340507
  entropy T*S    EENTRO =        -0.00000000
  eigenvalues    EBANDS =     -4708.25980093
  atomic energy  EATOM  =     55198.51496693
  Solvation  Ediel_sol  =         0.00000000
  ---------------------------------------------------
  free energy    TOTEN  =      -180.36414360 eV

  energy without entropy =     -180.36414360  energy(sigma->0) =     -180.36414360


--------------------------------------------------------------------------------------------------------




--------------------------------------- Iteration      1(   7)  ---------------------------------------


    POTLOK:  cpu time    0.3671: real time    0.3694
    SETDIJ:  cpu time    0.6724: real time    0.6754
     EDDAV:  cpu time   37.9042: real time   37.9954
       DOS:  cpu time    0.0426: real time    0.0427
    CHARGE:  cpu time    1.7652: real time    1.7694
    MIXING:  cpu time    0.0253: real time    0.0254
    --------------------------------------------
      LOOP:  cpu time   40.7768: real time   40.8778

 eigenvalue-minimisations  :  3672
 total energy-change (2. order) :-0.7845733E+00  (-0.3637863E+01)
 number of electron     552.0000011 magnetization 
 augmentation part      166.8813207 magnetization 

 Broyden mixing:
  rms(total) = 0.11655E+01    rms(broyden)= 0.11655E+01
  rms(prec ) = 0.11809E+01
  weight for this iteration     100.00

 eigenvalues of (default mixing * dielectric matrix)
  average eigenvalue GAMMA=   1.7303
  1.1026  2.3580

 Free energy of the ion-electron system (eV)
  ---------------------------------------------------
  alpha Z        PSCENC =       940.95539792
  Ewald energy   TEWEN  =    115619.65143121
  -Hartree energ DENC   =   -166107.98504613
  -exchange      EXHF   =         0.00000000
  -V(xc)+E(xc)   XCENC  =      1654.04901567
  PAW double counting   =     55874.08951377   -58704.92540858
  entropy T*S    EENTRO =        -0.00000000
  eigenvalues    EBANDS =     -4655.49858767
  atomic energy  EATOM  =     55198.51496693
  Solvation  Ediel_sol  =         0.00000000
  ---------------------------------------------------
  free energy    TOTEN  =      -181.14871689 eV

  energy without entropy =     -181.14871689  energy(sigma->0) =     -181.14871689


--------------------------------------------------------------------------------------------------------




--------------------------------------- Iteration      1(   8)  ---------------------------------------


    POTLOK:  cpu time    0.3635: real time    0.3657
    SETDIJ:  cpu time    0.6910: real time    0.6951
     EDDAV:  cpu time   42.6979: real time   42.8007
       DOS:  cpu time    0.0399: real time    0.0400
    CHARGE:  cpu time    1.7529: real time    1.7571
    MIXING:  cpu time    0.0260: real time    0.0260
    --------------------------------------------
      LOOP:  cpu time   45.5712: real time   45.6847

 eigenvalue-minimisations  :  4112
 total energy-change (2. order) : 0.7551401E+00  (-0.4746693E+00)
 number of electron     552.0000011 magnetization 
 augmentation part      166.3161172 magnetization 

 Broyden mixing:
  rms(total) = 0.29998E+00    rms(broyden)= 0.29997E+00
  rms(prec ) = 0.30398E+00
  weight for this iteration     100.00

 eigenvalues of (default mixing * dielectric matrix)
  average eigenvalue GAMMA=   1.4857
  2.2932  1.0820  1.0820

 Free energy of the ion-electron system (eV)
  ---------------------------------------------------
  alpha Z        PSCENC =       940.95539792
  Ewald energy   TEWEN  =    115619.65143121
  -Hartree energ DENC   =   -166101.53948297
  -exchange      EXHF   =         0.00000000
  -V(xc)+E(xc)   XCENC  =      1651.60841832
  PAW double counting   =     57744.07273781   -60582.87811279
  entropy T*S    EENTRO =        -0.00000000
  eigenvalues    EBANDS =     -4650.77893319
  atomic energy  EATOM  =     55198.51496693
  Solvation  Ediel_sol  =         0.00000000
  ---------------------------------------------------
  free energy    TOTEN  =      -180.39357676 eV

  energy without entropy =     -180.39357676  energy(sigma->0) =     -180.39357676


--------------------------------------------------------------------------------------------------------




--------------------------------------- Iteration      1(   9)  ---------------------------------------


    POTLOK:  cpu time    0.3595: real time    0.3619
    SETDIJ:  cpu time    0.6908: real time    0.6950
     EDDAV:  cpu time   43.1034: real time   43.2071
       DOS:  cpu time    0.0405: real time    0.0406
    CHARGE:  cpu time    1.7647: real time    1.7690
    MIXING:  cpu time    0.0258: real time    0.0259
    --------------------------------------------
      LOOP:  cpu time   45.9848: real time   46.0995

 eigenvalue-minimisations  :  4160
 total energy-change (2. order) : 0.4145843E-02  (-0.5805932E-01)
 number of electron     552.0000011 magnetization 
 augmentation part      166.3283356 magnetization 

 Broyden mixing:
  rms(total) = 0.98769E-01    rms(broyden)= 0.98768E-01
  rms(prec ) = 0.10124E+00
  weight for this iteration     100.00

 eigenvalues of (default mixing * dielectric matrix)
  average eigenvalue GAMMA=   1.3894
  2.3093  1.1665  1.1665  0.9155

 Free energy of the ion-electron system (eV)
  ---------------------------------------------------
  alpha Z        PSCENC =       940.95539792
  Ewald energy   TEWEN  =    115619.65143121
  -Hartree energ DENC   =   -166078.22829841
  -exchange      EXHF   =         0.00000000
  -V(xc)+E(xc)   XCENC  =      1651.01644202
  PAW double counting   =     58038.05655225   -60870.76820489
  entropy T*S    EENTRO =        -0.00000000
  eigenvalues    EBANDS =     -4679.58771794
  atomic energy  EATOM  =     55198.51496693
  Solvation  Ediel_sol  =         0.00000000
  ---------------------------------------------------
  free energy    TOTEN  =      -180.38943092 eV

  energy without entropy =     -180.38943092  energy(sigma->0) =     -180.38943092


--------------------------------------------------------------------------------------------------------




--------------------------------------- Iteration      1(  10)  ---------------------------------------


    POTLOK:  cpu time    0.3615: real time    0.3635
    SETDIJ:  cpu time    0.6800: real time    0.6817
     EDDAV:  cpu time   40.9686: real time   41.0672
       DOS:  cpu time    0.0426: real time    0.0427
    CHARGE:  cpu time    1.7698: real time    1.7741
    MIXING:  cpu time    0.0231: real time    0.0231
    --------------------------------------------
      LOOP:  cpu time   43.8456: real time   43.9523

 eigenvalue-minimisations  :  3928
 total energy-change (2. order) :-0.5634099E-02  (-0.9924175E-02)
 number of electron     552.0000011 magnetization 
 augmentation part      166.3674438 magnetization 

 Broyden mixing:
  rms(total) = 0.70943E-01    rms(broyden)= 0.70943E-01
  rms(prec ) = 0.72313E-01
  weight for this iteration     100.00

 eigenvalues of (default mixing * dielectric matrix)
  average eigenvalue GAMMA=   1.2892
  2.1361  1.4479  1.0475  1.0475  0.7671

 Free energy of the ion-electron system (eV)
  ---------------------------------------------------
  alpha Z        PSCENC =       940.95539792
  Ewald energy   TEWEN  =    115619.65143121
  -Hartree energ DENC   =   -166069.55391858
  -exchange      EXHF   =         0.00000000
  -V(xc)+E(xc)   XCENC  =      1650.79423751
  PAW double counting   =     58114.03859805   -60944.56846753
  entropy T*S    EENTRO =        -0.00000000
  eigenvalues    EBANDS =     -4690.22731052
  atomic energy  EATOM  =     55198.51496693
  Solvation  Ediel_sol  =         0.00000000
  ---------------------------------------------------
  free energy    TOTEN  =      -180.39506502 eV

  energy without entropy =     -180.39506502  energy(sigma->0) =     -180.39506502


--------------------------------------------------------------------------------------------------------




--------------------------------------- Iteration      1(  11)  ---------------------------------------


    POTLOK:  cpu time    0.3561: real time    0.3584
    SETDIJ:  cpu time    0.6899: real time    0.6934
     EDDAV:  cpu time   42.9631: real time   43.0666
       DOS:  cpu time    0.0382: real time    0.0383
    CHARGE:  cpu time    1.7159: real time    1.7200
    MIXING:  cpu time    0.0259: real time    0.0260
    --------------------------------------------
      LOOP:  cpu time   45.7891: real time   45.9027

 eigenvalue-minimisations  :  4176
 total energy-change (2. order) :-0.2621302E-02  (-0.2192675E-02)
 number of electron     552.0000011 magnetization 
 augmentation part      166.3599264 magnetization 

 Broyden mixing:
  rms(total) = 0.50908E-01    rms(broyden)= 0.50908E-01
  rms(prec ) = 0.52234E-01
  weight for this iteration     100.00

 eigenvalues of (default mixing * dielectric matrix)
  average eigenvalue GAMMA=   1.3619
  2.0012  2.0012  1.2503  1.2503  0.9785  0.6903

 Free energy of the ion-electron system (eV)
  ---------------------------------------------------
  alpha Z        PSCENC =       940.95539792
  Ewald energy   TEWEN  =    115619.65143121
  -Hartree energ DENC   =   -166068.81594361
  -exchange      EXHF   =         0.00000000
  -V(xc)+E(xc)   XCENC  =      1650.73959137
  PAW double counting   =     58045.51058707   -60875.94758162
  entropy T*S    EENTRO =        -0.00000000
  eigenvalues    EBANDS =     -4691.00613559
  atomic energy  EATOM  =     55198.51496693
  Solvation  Ediel_sol  =         0.00000000
  ---------------------------------------------------
  free energy    TOTEN  =      -180.39768632 eV

  energy without entropy =     -180.39768632  energy(sigma->0) =     -180.39768632


--------------------------------------------------------------------------------------------------------




--------------------------------------- Iteration      1(  12)  ---------------------------------------


    POTLOK:  cpu time    0.3601: real time    0.3623
    SETDIJ:  cpu time    0.6906: real time    0.6941
     EDDAV:  cpu time   42.6869: real time   42.7897
       DOS:  cpu time    0.0421: real time    0.0422
    CHARGE:  cpu time    1.7617: real time    1.7659
    MIXING:  cpu time    0.0252: real time    0.0253
    --------------------------------------------
      LOOP:  cpu time   45.5666: real time   45.6795

 eigenvalue-minimisations  :  4152
 total energy-change (2. order) :-0.1752367E-02  (-0.5425230E-03)
 number of electron     552.0000011 magnetization 
 augmentation part      166.3584756 magnetization 

 Broyden mixing:
  rms(total) = 0.22206E-01    rms(broyden)= 0.22206E-01
  rms(prec ) = 0.23672E-01
  weight for this iteration     100.00

 eigenvalues of (default mixing * dielectric matrix)
  average eigenvalue GAMMA=   1.4423
  2.3880  2.3004  1.6482  1.1199  1.1199  0.8911  0.6288

 Free energy of the ion-electron system (eV)
  ---------------------------------------------------
  alpha Z        PSCENC =       940.95539792
  Ewald energy   TEWEN  =    115619.65143121
  -Hartree energ DENC   =   -166067.31186478
  -exchange      EXHF   =         0.00000000
  -V(xc)+E(xc)   XCENC  =      1650.76577802
  PAW double counting   =     57993.99254392   -60824.42744805
  entropy T*S    EENTRO =        -0.00000000
  eigenvalues    EBANDS =     -4692.54024384
  atomic energy  EATOM  =     55198.51496693
  Solvation  Ediel_sol  =         0.00000000
  ---------------------------------------------------
  free energy    TOTEN  =      -180.39943869 eV

  energy without entropy =     -180.39943869  energy(sigma->0) =     -180.39943869


--------------------------------------------------------------------------------------------------------




--------------------------------------- Iteration      1(  13)  ---------------------------------------


    POTLOK:  cpu time    0.3559: real time    0.3581
    SETDIJ:  cpu time    0.6811: real time    0.6836
     EDDAV:  cpu time   40.3123: real time   40.4092
       DOS:  cpu time    0.0423: real time    0.0424
    CHARGE:  cpu time    1.7695: real time    1.7737
    MIXING:  cpu time    0.0248: real time    0.0249
    --------------------------------------------
      LOOP:  cpu time   43.1858: real time   43.2919

 eigenvalue-minimisations  :  3992
 total energy-change (2. order) :-0.1247203E-02  (-0.4145184E-03)
 number of electron     552.0000011 magnetization 
 augmentation part      166.3615056 magnetization 

 Broyden mixing:
  rms(total) = 0.76021E-02    rms(broyden)= 0.76019E-02
  rms(prec ) = 0.87865E-02
  weight for this iteration     100.00

 eigenvalues of (default mixing * dielectric matrix)
  average eigenvalue GAMMA=   1.4116
  2.4860  2.1615  1.8025  1.0381  1.0381  1.0658  1.0658  0.6348

 Free energy of the ion-electron system (eV)
  ---------------------------------------------------
  alpha Z        PSCENC =       940.95539792
  Ewald energy   TEWEN  =    115619.65143121
  -Hartree energ DENC   =   -166064.48889410
  -exchange      EXHF   =         0.00000000
  -V(xc)+E(xc)   XCENC  =      1650.79497755
  PAW double counting   =     58016.44815898   -60846.80789422
  entropy T*S    EENTRO =        -0.00000000
  eigenvalues    EBANDS =     -4695.46883016
  atomic energy  EATOM  =     55198.51496693
  Solvation  Ediel_sol  =         0.00000000
  ---------------------------------------------------
  free energy    TOTEN  =      -180.40068589 eV

  energy without entropy =     -180.40068589  energy(sigma->0) =     -180.40068589


--------------------------------------------------------------------------------------------------------




--------------------------------------- Iteration      1(  14)  ---------------------------------------


    POTLOK:  cpu time    0.3590: real time    0.3611
    SETDIJ:  cpu time    0.6920: real time    0.6946
     EDDAV:  cpu time   40.6563: real time   40.7541
       DOS:  cpu time    0.0415: real time    0.0416
    CHARGE:  cpu time    1.7140: real time    1.7181
    MIXING:  cpu time    0.0285: real time    0.0285
    --------------------------------------------
      LOOP:  cpu time   43.4913: real time   43.5982

 eigenvalue-minimisations  :  3872
 total energy-change (2. order) :-0.7503721E-03  (-0.2055657E-03)
 number of electron     552.0000011 magnetization 
 augmentation part      166.3619769 magnetization 

 Broyden mixing:
  rms(total) = 0.68987E-02    rms(broyden)= 0.68985E-02
  rms(prec ) = 0.76793E-02
  weight for this iteration     100.00

 eigenvalues of (default mixing * dielectric matrix)
  average eigenvalue GAMMA=   1.3927
  2.8951  2.3146  1.5177  1.5177  1.1008  1.1008  0.9445  0.6282  0.5149

 Free energy of the ion-electron system (eV)
  ---------------------------------------------------
  alpha Z        PSCENC =       940.95539792
  Ewald energy   TEWEN  =    115619.65143121
  -Hartree energ DENC   =   -166063.53725845
  -exchange      EXHF   =         0.00000000
  -V(xc)+E(xc)   XCENC  =      1650.78736320
  PAW double counting   =     58014.47609599   -60844.83079785
  entropy T*S    EENTRO =        -0.00000000
  eigenvalues    EBANDS =     -4696.41863521
  atomic energy  EATOM  =     55198.51496693
  Solvation  Ediel_sol  =         0.00000000
  ---------------------------------------------------
  free energy    TOTEN  =      -180.40143626 eV

  energy without entropy =     -180.40143626  energy(sigma->0) =     -180.40143626


--------------------------------------------------------------------------------------------------------




--------------------------------------- Iteration      1(  15)  ---------------------------------------


    POTLOK:  cpu time    0.2854: real time    0.2874
    SETDIJ:  cpu time    0.5382: real time    0.5398
     EDDAV:  cpu time   40.4934: real time   40.5909
       DOS:  cpu time    0.0438: real time    0.0439
    CHARGE:  cpu time    1.7725: real time    1.7768
    MIXING:  cpu time    0.0254: real time    0.0254
    --------------------------------------------
      LOOP:  cpu time   43.1586: real time   43.2641

[...]
  augment   361.41119   361.43225   361.55218    -0.00330     0.00003    -0.00012
  Kinetic  6047.73623  6050.79155  6202.40561    -4.87929    -0.05034    -0.15256
  Fock        0.00000     0.00000     0.00000     0.00000     0.00000     0.00000
  vdW       -12.44190   -12.44204    -6.57001     0.00003    -0.00001    -0.00000
  -------------------------------------------------------------------------------------
  Total      -8.25613    -8.25629    -0.96132     0.00003     0.00000     0.00000
  in kB      -4.49659    -4.49668    -0.52357     0.00001     0.00000     0.00000
  external pressure =       -3.17 kB  Pullay stress =        0.00 kB


 VOLUME and BASIS-vectors are now :
 -----------------------------------------------------------------------------
  energy-cutoff  :      500.00
  volume of cell :     2941.74
      direct lattice vectors                 reciprocal lattice vectors
    11.656400000  0.000000000  0.000000000     0.085789781  0.049530553  0.000000000
    -5.828232380 10.094835290  0.000000000     0.000000000  0.099060556  0.000000000
     0.000000000  0.000000000 25.000000000     0.000000000  0.000000000  0.040000000

  length of vectors
    11.656400000 11.656499998 25.000000000     0.099061406  0.099060556  0.040000000


 FORCES acting on ions
    electron-ion (+dipol)            ewald-force                    non-local-force                 convergence-correction
 -----------------------------------------------------------------------------------------------
   -.711E-03 -.475E+01 -.150E+04   0.456E-03 0.462E+01 0.150E+04   -.420E-06 0.131E+00 -.189E+00   -.172E-07 0.467E-06 -.495E-05
   -.524E+01 -.302E+01 -.150E+04   0.523E+01 0.302E+01 0.150E+04   0.435E-02 0.251E-02 -.492E-01   0.156E-07 -.165E-07 -.284E-05
   -.411E+01 0.238E+01 -.150E+04   0.400E+01 -.231E+01 0.150E+04   0.114E+00 -.655E-01 -.189E+00   0.389E-06 -.226E-06 -.496E-05
   0.194E+01 0.112E+01 -.151E+04   -.193E+01 -.111E+01 0.151E+04   -.203E-01 -.117E-01 -.194E-01   -.825E-06 -.471E-06 -.225E-05
   0.524E+01 -.302E+01 -.150E+04   -.523E+01 0.302E+01 0.150E+04   -.435E-02 0.251E-02 -.492E-01   -.999E-08 0.633E-08 -.282E-05
   -.930E-03 0.605E+01 -.150E+04   -.324E-03 -.604E+01 0.150E+04   0.161E-07 -.502E-02 -.492E-01   0.226E-07 -.558E-08 -.284E-05
   -.195E+01 0.112E+01 -.151E+04   0.192E+01 -.111E+01 0.151E+04   0.203E-01 -.117E-01 -.194E-01   0.842E-06 -.486E-06 -.226E-05
   -.202E-02 -.225E+01 -.151E+04   -.102E-03 0.222E+01 0.151E+04   -.752E-07 0.235E-01 -.194E-01   -.477E-08 0.950E-06 -.225E-05
   0.411E+01 0.238E+01 -.150E+04   -.400E+01 -.231E+01 0.150E+04   -.114E+00 -.655E-01 -.189E+00   -.413E-06 -.219E-06 -.495E-05
   -.771E+00 0.484E-01 -.135E+04   0.766E+00 -.735E-01 0.135E+04   0.320E-02 0.211E-01 -.300E+01   -.143E-06 -.112E-06 -.102E-04
   -.337E+00 -.694E+00 -.135E+04   0.319E+00 0.702E+00 0.135E+04   0.199E-01 -.777E-02 -.300E+01   -.167E-06 -.806E-07 -.102E-04
   0.645E-02 -.509E-02 -.135E+04   0.458E-03 0.150E-02 0.135E+04   0.236E-17 0.277E-18 -.298E+01   -.121E-07 0.675E-08 -.111E-04
   0.762E+00 0.503E-01 -.135E+04   -.765E+00 -.733E-01 0.135E+04   -.320E-02 0.211E-01 -.300E+01   0.140E-06 -.992E-07 -.102E-04
   -.839E-02 0.345E-02 -.135E+04   0.153E-02 0.919E-03 0.135E+04   0.132E-17 -.124E-17 -.300E+01   0.104E-07 -.584E-08 -.106E-04
   0.431E+00 0.636E+00 -.135E+04   -.447E+00 -.624E+00 0.135E+04   0.167E-01 -.133E-01 -.300E+01   -.134E-07 0.184E-06 -.102E-04
   -.127E-02 -.670E-03 -.135E+04   -.213E-03 0.193E-02 0.136E+04   -.420E-18 0.338E-18 -.298E+01   0.240E-08 -.121E-08 -.956E-05
   0.336E+00 -.687E+00 -.135E+04   -.317E+00 0.702E+00 0.135E+04   -.199E-01 -.777E-02 -.300E+01   0.156E-06 -.717E-07 -.102E-04
   -.429E+00 0.641E+00 -.135E+04   0.448E+00 -.624E+00 0.135E+04   -.167E-01 -.133E-01 -.300E+01   0.259E-07 0.180E-06 -.102E-04
   -.450E+01 -.259E+01 -.409E+03   0.450E+01 0.260E+01 0.406E+03   -.751E-02 -.433E-02 0.312E+01   -.346E-07 -.341E-07 0.469E-05
   -.159E-02 0.122E+01 -.407E+03   -.554E-03 -.123E+01 0.404E+03   -.400E-07 0.125E-01 0.311E+01   -.667E-08 0.120E-06 0.285E-05
   0.106E+01 -.609E+00 -.407E+03   -.107E+01 0.615E+00 0.404E+03   0.108E-01 -.624E-02 0.311E+01   0.947E-07 -.548E-07 0.286E-05
   -.471E-03 -.888E+01 -.393E+03   -.148E-02 0.881E+01 0.390E+03   -.239E-06 0.744E-01 0.302E+01   -.517E-08 -.661E-06 0.347E-05
   -.769E+01 0.444E+01 -.393E+03   0.763E+01 -.441E+01 0.390E+03   0.645E-01 -.372E-01 0.302E+01   -.563E-06 0.325E-06 0.345E-05
   -.105E+01 -.605E+00 -.407E+03   0.107E+01 0.615E+00 0.404E+03   -.108E-01 -.624E-02 0.311E+01   -.107E-06 -.544E-07 0.285E-05
   0.448E+01 -.259E+01 -.409E+03   -.450E+01 0.260E+01 0.406E+03   0.751E-02 -.433E-02 0.312E+01   0.395E-07 -.223E-07 0.470E-05
   0.769E+01 0.444E+01 -.393E+03   -.763E+01 -.441E+01 0.390E+03   -.645E-01 -.372E-01 0.302E+01   0.570E-06 0.335E-06 0.347E-05
   -.448E-02 0.519E+01 -.409E+03   0.191E-03 -.520E+01 0.406E+03   -.278E-07 0.867E-02 0.312E+01   0.126E-07 0.469E-07 0.469E-05
   -.174E+01 0.179E+02 0.191E+04   0.184E+01 -.175E+02 -.191E+04   -.104E+00 -.407E+00 0.167E+01   0.633E-05 0.341E-05 -.293E-05
   0.146E+02 -.104E+02 0.191E+04   -.142E+02 0.103E+02 -.191E+04   -.405E+00 0.114E+00 0.167E+01   0.615E-05 0.380E-05 -.292E-05
   0.187E-02 0.262E-02 0.191E+04   -.201E-02 -.422E-02 -.191E+04   -.372E-17 -.228E-18 0.187E+01   0.230E-08 -.233E-08 -.758E-05
   0.174E+01 0.179E+02 0.191E+04   -.185E+01 -.175E+02 -.191E+04   0.104E+00 -.407E+00 0.167E+01   -.637E-05 0.339E-05 -.292E-05
   0.376E-02 0.214E-02 0.168E+04   -.485E-02 -.306E-02 -.167E+04   -.467E-17 -.869E-18 -.160E+01   -.340E-07 0.197E-07 -.449E-05
   0.164E+02 -.744E+01 0.191E+04   -.161E+02 0.714E+01 -.191E+04   -.301E+00 0.294E+00 0.167E+01   -.218E-06 -.722E-05 -.292E-05
   0.540E-03 0.355E-02 0.192E+04   0.118E-03 -.559E-02 -.192E+04   0.652E-17 -.335E-17 0.198E+01   0.333E-07 -.187E-07 -.668E-05
   -.146E+02 -.104E+02 0.191E+04   0.142E+02 0.103E+02 -.191E+04   0.405E+00 0.114E+00 0.167E+01   -.612E-05 0.382E-05 -.292E-05
   -.164E+02 -.743E+01 0.191E+04   0.161E+02 0.713E+01 -.191E+04   0.301E+00 0.294E+00 0.167E+01   0.216E-06 -.719E-05 -.293E-05
   0.408E+01 0.235E+01 0.272E+03   -.377E+01 -.217E+01 -.271E+03   -.305E+00 -.176E+00 -.161E+01   0.354E-05 0.204E-05 0.526E-05
   0.576E-03 0.106E+02 0.268E+03   -.196E-04 -.967E+01 -.267E+03   0.308E-05 -.962E+00 -.104E+01   0.234E-07 -.248E-05 0.478E-05
   0.922E+01 -.533E+01 0.268E+03   -.838E+01 0.484E+01 -.267E+03   -.833E+00 0.481E+00 -.104E+01   -.217E-05 0.125E-05 0.478E-05
   0.264E-03 -.336E+02 0.229E+03   -.153E-02 0.330E+02 -.229E+03   -.200E-05 0.623E+00 -.763E-01   -.309E-07 -.565E-05 -.409E-05
   -.291E+02 0.168E+02 0.229E+03   0.285E+02 -.165E+02 -.229E+03   0.540E+00 -.312E+00 -.763E-01   -.491E-05 0.283E-05 -.409E-05
   -.923E+01 -.533E+01 0.268E+03   0.838E+01 0.484E+01 -.267E+03   0.833E+00 0.481E+00 -.104E+01   0.216E-05 0.122E-05 0.478E-05
   -.408E+01 0.235E+01 0.272E+03   0.377E+01 -.217E+01 -.271E+03   0.305E+00 -.176E+00 -.161E+01   -.351E-05 0.203E-05 0.528E-05
   0.291E+02 0.168E+02 0.229E+03   -.285E+02 -.165E+02 -.229E+03   -.540E+00 -.312E+00 -.763E-01   0.488E-05 0.285E-05 -.409E-05
   -.121E-02 -.471E+01 0.272E+03   0.257E-02 0.436E+01 -.271E+03   -.113E-05 0.353E+00 -.161E+01   0.499E-08 -.409E-05 0.526E-05
   -.190E+02 0.331E+01 -.925E+02   0.190E+02 -.336E+01 0.963E+02   -.286E-01 0.356E-01 -.385E+01   0.146E-05 0.227E-06 0.196E-05
   -.663E+01 -.181E+02 -.925E+02   0.662E+01 0.182E+02 0.963E+02   0.165E-01 -.426E-01 -.385E+01   0.938E-06 0.116E-05 0.195E-05
   0.218E-02 0.218E-02 -.100E+03   -.197E-02 -.297E-02 0.104E+03   -.227E-16 0.595E-17 -.398E+01   0.177E-08 -.135E-08 0.412E-05
   0.190E+02 0.332E+01 -.925E+02   -.190E+02 -.336E+01 0.963E+02   0.286E-01 0.356E-01 -.385E+01   -.147E-05 0.218E-06 0.196E-05
   0.124E+02 0.148E+02 -.925E+02   -.124E+02 -.148E+02 0.963E+02   0.452E-01 0.699E-02 -.385E+01   -.536E-06 -.139E-05 0.195E-05
   -.417E-02 0.579E-02 -.959E+02   0.203E-03 -.416E-02 0.999E+02   -.207E-17 -.480E-17 -.406E+01   0.114E-07 -.641E-08 0.501E-05
   0.664E+01 -.181E+02 -.925E+02   -.662E+01 0.182E+02 0.963E+02   -.165E-01 -.426E-01 -.385E+01   -.926E-06 0.117E-05 0.196E-05
   -.124E+02 0.148E+02 -.925E+02   0.124E+02 -.148E+02 0.963E+02   -.452E-01 0.699E-02 -.385E+01   0.535E-06 -.138E-05 0.196E-05
   0.319E+01 0.184E+01 0.119E+04   -.312E+01 -.180E+01 -.119E+04   -.633E-01 -.365E-01 0.380E+01   0.215E-05 0.123E-05 -.116E-05
   0.353E-02 0.391E+01 0.118E+04   0.474E-03 -.401E+01 -.118E+04   -.323E-06 0.101E+00 0.361E+01   0.116E-07 -.248E-06 -.129E-05
   0.339E+01 -.196E+01 0.118E+04   -.347E+01 0.201E+01 -.118E+04   0.871E-01 -.503E-01 0.361E+01   -.227E-06 0.131E-06 -.130E-05
   -.301E-04 -.103E+02 0.122E+04   -.549E-04 0.111E+02 -.123E+04   0.261E-05 -.812E+00 0.489E+01   -.180E-07 -.321E-06 0.153E-05
   -.889E+01 0.513E+01 0.122E+04   0.960E+01 -.554E+01 -.123E+04   -.704E+00 0.406E+00 0.489E+01   -.281E-06 0.162E-06 0.153E-05
   -.339E+01 -.196E+01 0.118E+04   0.348E+01 0.201E+01 -.118E+04   -.871E-01 -.503E-01 0.361E+01   0.221E-06 0.114E-06 -.129E-05
   -.320E+01 0.184E+01 0.119E+04   0.312E+01 -.180E+01 -.119E+04   0.633E-01 -.365E-01 0.380E+01   -.213E-05 0.123E-05 -.115E-05
   0.889E+01 0.513E+01 0.122E+04   -.960E+01 -.554E+01 -.123E+04   0.704E+00 0.406E+00 0.489E+01   0.270E-06 0.176E-06 0.153E-05
   -.203E-02 -.369E+01 0.119E+04   0.189E-02 0.361E+01 -.119E+04   -.234E-06 0.730E-01 0.380E+01   0.674E-08 -.248E-05 -.116E-05
 -----------------------------------------------------------------------------------------------
   -.378E-01 0.209E-01 -.988E+01   -.282E-12 -.120E-12 -.136E-11   -.414E-16 -.555E-16 0.987E+01   0.141E-08 -.614E-09 -.898E-04
 
 
 POSITION                                       TOTAL-FORCE (eV/Angst)
 -----------------------------------------------------------------------------------
      3.88546      0.00123     15.69932         0.000000     -0.000405     -0.007637
      1.94420      3.36580     15.71505        -0.002867     -0.001655      0.001948
      0.00103      6.72928     15.69932        -0.000351      0.000202     -0.007637
      7.77229      0.00078     15.71178        -0.000498     -0.000288      0.000974
      5.82672      3.36579     15.71503         0.002867     -0.001655      0.001948
      3.88544      6.72819     15.71505        -0.000000      0.003311      0.001948
     11.65504      0.00079     15.71179         0.000498     -0.000288      0.000974
      9.71366      3.36338     15.71178        -0.000000      0.000575      0.000974
      7.76985      6.72928     15.69932         0.000351      0.000202     -0.007637
      1.94934      1.12051     17.15663         0.002053     -0.001680     -0.002509
      0.00230      4.49289     17.15663        -0.000428      0.002618     -0.002509
     -1.94277      7.85154     17.15147         0.000000      0.000000     -0.009624
      5.82159      1.12051     17.15662        -0.002053     -0.001680     -0.002509
      3.88546      4.48659     17.16787         0.000000     -0.000000     -0.002217
      1.93841      7.84638     17.15663        -0.002481     -0.000938     -0.002509
      9.71366      1.12165     17.16483        -0.000000      0.000000      0.002196
      7.76860      4.49288     17.15662         0.000428      0.002618     -0.002509
      5.83246      7.84638     17.15663         0.002481     -0.000938     -0.002509
      0.00105      2.24390     14.28017         0.000329      0.000190      0.001451
     -1.94275      5.60363     14.27139         0.000000     -0.003896     -0.002605
     -3.88950      8.97550     14.27139        -0.003374      0.001948     -0.002605
      3.88546      2.26230     14.26058        -0.000000      0.003882     -0.002138
      1.95917      5.59874     14.26058         0.003362     -0.001941     -0.002138
      0.00397      8.97550     14.27139         0.003374      0.001948     -0.002605
      7.76989      2.24390     14.28016        -0.000329      0.000190      0.001451
      5.81173      5.59874     14.26058        -0.003362     -0.001941     -0.002138
      3.88544      8.97197     14.28017         0.000000     -0.000380      0.001451
      1.97416      1.14829      8.60320        -0.002828     -0.000895      0.000064
      0.03875      4.50049      8.60320        -0.002190     -0.002002      0.000064
     -1.94276      7.85154      8.60957         0.000000      0.000000      0.018592
      5.79677      1.14829      8.60319         0.002828     -0.000895      0.000064
      3.88545      4.48659      8.98101         0.000000     -0.000000      0.017208
      1.95006      7.81102      8.60320         0.000639      0.002897      0.000064
      9.71366      1.12165      8.59159         0.000000      0.000000      0.012645
      7.73213      4.50048      8.60319         0.002190     -0.002002      0.000064
      5.82082      7.81100      8.60320        -0.000639      0.002897      0.000064
      0.00383      2.24551     10.67556        -0.004093     -0.002363     -0.005358
     -1.94275      5.60163     10.67908        -0.000000      0.015778      0.009707
     -3.89123      8.97650     10.67909         0.013664     -0.007889      0.009707
      3.88547      2.44770     10.59448         0.000000     -0.010424     -0.000875
      2.11970      5.50606     10.59445        -0.009028      0.005212     -0.000875
      0.00569      8.97649     10.67908        -0.013664     -0.007889      0.009707
      7.76710      2.24550     10.67556         0.004093     -0.002363     -0.005358
      5.65117      5.50604     10.59448         0.009028      0.005212     -0.000875
      3.88544      8.96876     10.67556        -0.000000      0.004726     -0.005358
      1.99363      1.18070     11.18135        -0.005002     -0.005303      0.001173
      0.07656      4.50114     11.18135        -0.007094     -0.001680      0.001173
     -1.94276      7.85154     11.23414         0.000000      0.000000     -0.000271
      5.77731      1.18070     11.18135         0.005002     -0.005303      0.001173
      1.96840      7.77795     11.18135        -0.002092      0.006983      0.001173
      9.71367      1.12164     11.21925        -0.000000      0.000000     -0.007863
      7.69434      4.50114     11.18135         0.007094     -0.001680      0.001173
      5.80248      7.77793     11.18135         0.002092      0.006983      0.001173
      0.00386      2.24553      8.07415         0.004410      0.002546     -0.007253
     -1.94276      5.60047      8.11076        -0.000000      0.000781     -0.011563
     -3.89223      8.97708      8.11075         0.000676     -0.000391     -0.011563
      3.88546      2.31923      8.01827         0.000000     -0.001115      0.015669
      2.00847      5.57028      8.01829        -0.000965      0.000557      0.015669
      0.00670      8.97708      8.11076        -0.000676     -0.000391     -0.011563
      7.76707      2.24552      8.07415        -0.004410      0.002546     -0.007253
      5.76242      5.57028      8.01827         0.000965      0.000557      0.015669
      3.88544      8.96872      8.07415         0.000000     -0.005092     -0.007253
 -----------------------------------------------------------------------------------
    total drift:                               -0.037772      0.020867     -0.001869


--------------------------------------------------------------------------------------------------------



  FREE ENERGIE OF THE ION-ELECTRON SYSTEM (eV)
  ---------------------------------------------------
  free  energy   TOTEN  =      -190.84151859 eV

  energy  without entropy=     -190.84151859  energy(sigma->0) =     -190.84151859
 


--------------------------------------------------------------------------------------------------------


    POTLOK:  cpu time    1.1266: real time    1.1305


--------------------------------------------------------------------------------------------------------


 writing wavefunctions
     LOOP+:  cpu time 1594.6869: real time 1598.6314
    4ORBIT:  cpu time    0.0000: real time    0.0000
 


 total charge     
 
# of ion       s       p       d       tot
------------------------------------------
    1        0.324   0.226   9.618  10.167
    2        0.325   0.227   9.618  10.170
    3        0.324   0.226   9.618  10.167
    4        0.324   0.227   9.618  10.170
    5        0.325   0.227   9.618  10.170
    6        0.325   0.227   9.618  10.170
    7        0.324   0.227   9.618  10.170
    8        0.324   0.227   9.618  10.170
    9        0.324   0.226   9.618  10.167
   10        1.603   3.503   0.000   5.106
   11        1.603   3.503   0.000   5.106
   12        1.603   3.503   0.000   5.106
   13        1.603   3.503   0.000   5.106
   14        1.603   3.503   0.000   5.106
   15        1.603   3.503   0.000   5.106
   16        1.603   3.503   0.000   5.106
   17        1.603   3.503   0.000   5.106
   18        1.603   3.503   0.000   5.106
   19        1.604   3.504   0.000   5.109
   20        1.604   3.504   0.000   5.108
   21        1.604   3.504   0.000   5.108
   22        1.604   3.504   0.000   5.108
   23        1.604   3.504   0.000   5.108
   24        1.604   3.504   0.000   5.108
   25        1.604   3.504   0.000   5.109
   26        1.604   3.504   0.000   5.108
   27        1.604   3.504   0.000   5.109
   28        0.515   0.456   9.804  10.774
   29        0.515   0.456   9.804  10.774
   30        0.518   0.459   9.804  10.781
   31        0.515   0.456   9.804  10.774
   32        0.540   0.504   9.756  10.800
   33        0.515   0.456   9.804  10.774
   34        0.516   0.456   9.804  10.777
   35        0.515   0.456   9.804  10.774
   36        0.515   0.456   9.804  10.774
   37        0.516   0.457   9.804  10.777
   38        0.506   0.432   9.802  10.741
   39        0.506   0.432   9.802  10.741
   40        0.520   0.382   9.783  10.684
   41        0.520   0.382   9.783  10.684
   42        0.506   0.432   9.802  10.741
   43        0.516   0.457   9.804  10.777
   44        0.520   0.382   9.783  10.684
   45        0.516   0.457   9.804  10.777
   46        1.328   2.398   0.000   3.726
   47        1.328   2.398   0.000   3.726
   48        1.327   2.408   0.000   3.735
   49        1.328   2.398   0.000   3.726
   50        1.328   2.398   0.000   3.726
   51        1.326   2.409   0.000   3.735
   52        1.328   2.398   0.000   3.726
   53        1.328   2.398   0.000   3.726
   54        1.325   2.410   0.000   3.735
   55        1.325   2.412   0.000   3.736
   56        1.325   2.412   0.000   3.736
   57        1.335   2.381   0.000   3.716
   58        1.335   2.381   0.000   3.716
   59        1.325   2.412   0.000   3.736
   60        1.325   2.410   0.000   3.735
   61        1.335   2.381   0.000   3.716
   62        1.325   2.410   0.000   3.735
--------------------------------------------------
tot         63.645 113.882 262.920 440.447
 

 total amount of memory used by VASP MPI-rank0   207846. kBytes
=======================================================================

   base      :      30000. kBytes
   nonl-proj :      18128. kBytes
   fftplans  :      62653. kBytes
   grid      :      34136. kBytes
   one-center:         62. kBytes
   wavefun   :      62867. kBytes
 
  
  
 General timing and accounting informations for this job:
 ========================================================
  
                  Total CPU time used (sec):     1644.137
                            User time (sec):     1634.623
                          System time (sec):        9.514
                         Elapsed time (sec):     1648.364
  
                   Maximum memory used (kb):      619516.
                   Average memory used (kb):           0.
  
                          Minor page faults:       636882
                          Major page faults:            0
                 Voluntary context switches:         1592
