 vasp.6.4.0 14Feb23 (build Nov 26 2024 22:10:46) complex                        
  
 executed on             LinuxIFC date 2025.02.20  21:30:52
 running   32 mpi-ranks, on    1 nodes
 distrk:  each k-point on   32 cores,    1 groups
 distr:  one band on NCORE=   1 cores,   32 groups


--------------------------------------------------------------------------------------------------------


 INCAR:
   ISTART = 1            (Read existing wavefunction, if there)
   ISPIN = 1            (Non-Spin polarised DFT)
   LREAL = .FALSE.       (Projection operators: automatic)
   ENCUT = 500        (Cut-off energy for plane wave basis set, in eV)
   LWAVE = .TRUE.        (Write WAVECAR or not)
   LCHARG = .TRUE.        (Write CHGCAR or not)
   ADDGRID = .TRUE.        (Increase grid, helps GGA convergence)
   LASPH = .TRUE.        (Give more accurate total energies and band structure calculations)
   PREC = Accurate      (Accurate strictly avoids any aliasing or wrap around errors)
   LVTOT = .TRUE.      (Write total electrostatic potential into LOCPOT or not)
   LVHAR = .TRUE.      (Write ionic + Hartree electrostatic potential into LOCPOT or not)
   ISMEAR = 0            (gaussian smearing method)
   SIGMA = 0.05         (please check the width of the smearing)
   LORBIT = 11           (PAW radii for projected DOS)
   NEDOS = 2001         (DOSCAR points)
   NELM = 60           (Max electronic SCF steps)
   EDIFF = 1E-08        (SCF energy convergence, in eV)
   IVDW = 11           (DFT-D3 method of method with no damping)

 POTCAR:    PAW_PBE Cd 06Sep2000                  
 POTCAR:    PAW_PBE Cl 06Sep2000                  
 POTCAR:    PAW_PBE Zn 06Sep2000                  
 POTCAR:    PAW_PBE S 06Sep2000                   
 -----------------------------------------------------------------------------
|                                                                             |
|           W    W    AA    RRRRR   N    N  II  N    N   GGGG   !!!           |
|           W    W   A  A   R    R  NN   N  II  NN   N  G    G  !!!           |
|           W    W  A    A  R    R  N N  N  II  N N  N  G       !!!           |
|           W WW W  AAAAAA  RRRRR   N  N N  II  N  N N  G  GGG   !            |
|           WW  WW  A    A  R   R   N   NN  II  N   NN  G    G                |
|           W    W  A    A  R    R  N    N  II  N    N   GGGG   !!!           |
|                                                                             |
|     For optimal performance we recommend to set                             |
|       NCORE = 2 up to number-of-cores-per-socket                            |
|     NCORE specifies how many cores store one orbital (NPAR=cpu/NCORE).      |
|     This setting can greatly improve the performance of VASP for DFT.       |
|     The default, NCORE=1 might be grossly inefficient on modern             |
|     multi-core architectures or massively parallel machines. Do your        |
|     own testing! More info at https://www.vasp.at/wiki/index.php/NCORE      |
|     Unfortunately you need to use the default for GW and RPA                |
|     calculations (for HF NCORE is supported but not extensively tested      |
|     yet).                                                                   |
|                                                                             |
 -----------------------------------------------------------------------------

 POTCAR:    PAW_PBE Cd 06Sep2000                  
   SHA256 =  8b7ca71966beae5276c8bb910adb3ecc013a3354c27473914c94cd54c83be4f7 Cd/POTCAR             
   COPYR  = (c) Copyright 06Sep2000 Georg Kresse                                                    
   COPYR  = This file is part of the software VASP. Any use, copying, and all other rights are regul
   COPYR  = If you do not have a valid VASP license, you may not use, copy or distribute this file. 
   VRHFIN =Cd : s2 d10                                                                              
   LEXCH  = PE                                                                                      
   EATOM  =  1293.1815 eV,   95.0462 Ry                                                             
                                                                                                    
   TITEL  = PAW_PBE Cd 06Sep2000                                                                    
   LULTRA =        F    use ultrasoft PP ?                                                          
   IUNSCR =        1    unscreen: 0-lin 1-nonlin 2-no                                               
   RPACOR =    2.000    partial core radius                                                         
   POMASS =  112.411; ZVAL   =   12.000    mass and valenz                                          
   RCORE  =    2.300    outmost cutoff radius                                                       
   RWIGS  =    2.980; RWIGS  =    1.577    wigner-seitz radius (au A)                               
   ENMAX  =  274.336; ENMIN  =  205.752 eV                                                          
   RCLOC  =    2.054    cutoff for local pot                                                        
   LCOR   =        T    correct aug charges                                                         
   LPAW   =        T    paw PP                                                                      
   EAUG   =  456.106                                                                                
   DEXC   =    0.000                                                                                
   RMAX   =    2.358    core radius for proj-oper                                                   
   RAUG   =    1.300    factor for augmentation sphere                                              
   RDEP   =    2.450    radius for radial grids                                                     
   RDEPT  =    1.955    core radius for aug-charge                                                  
                                                                                                    
   Atomic configuration                                                                             
   12 entries                                                                                       
     n  l   j            E        occ.                                                              
     1  0  0.50    -26519.7817   2.0000                                                             
     2  0  0.50     -3936.9612   2.0000                                                             
     2  1  1.50     -3532.2230   6.0000                                                             
     3  0  0.50      -733.7908   2.0000                                                             
     3  1  1.50      -601.0792   6.0000                                                             
     3  2  2.50      -393.5307  10.0000                                                             
     4  0  0.50      -105.8977   2.0000                                                             
     4  1  1.50       -66.9488   6.0000                                                             
     4  2  2.50       -11.7331  10.0000                                                             
     5  0  0.50        -5.6592   2.0000                                                             
     5  1  0.50        -1.3606   0.0000                                                             
     4  3  2.50        -1.3606   0.0000                                                             
   Description                                                                                      
     l       E           TYP  RCUT    TYP  RCUT                                                     
     2    -11.7331479     23  2.300                                                                 
     2    -13.0937305     23  2.300                                                                 
     0     -5.6591502     23  2.300                                                                 
     0     -1.5561433     23  2.300                                                                 
     1     -2.7211652     23  2.300                                                                 
     1      8.3548275     23  2.300                                                                 
  local pseudopotential read in
  partial core-charges read in
  partial kinetic energy density read in
  atomic valenz-charges read in
  non local Contribution for L=           2  read in
    real space projection operators read in
  non local Contribution for L=           2  read in
    real space projection operators read in
  non local Contribution for L=           0  read in
    real space projection operators read in
  non local Contribution for L=           0  read in
    real space projection operators read in
  non local Contribution for L=           1  read in
    real space projection operators read in
  non local Contribution for L=           1  read in
    real space projection operators read in
    PAW grid and wavefunctions read in
 
   number of l-projection  operators is LMAX  =           6
   number of lm-projection operators is LMMAX =          18
 
 POTCAR:    PAW_PBE Cl 06Sep2000                  
   SHA256 =  9f1b6e6ed4247ac726a768b330d26d7667cc3c95a39ff49c1d064c2d9dcce931 Cl/POTCAR             
   COPYR  = (c) Copyright 06Sep2000 Georg Kresse                                                    
   COPYR  = This file is part of the software VASP. Any use, copying, and all other rights are regul
   COPYR  = If you do not have a valid VASP license, you may not use, copy or distribute this file. 
   VRHFIN =Cl: s2p5                                                                                 
   LEXCH  = PE                                                                                      
   EATOM  =   409.7259 eV,   30.1140 Ry                                                             
                                                                                                    
   TITEL  = PAW_PBE Cl 06Sep2000                                                                    
   LULTRA =        F    use ultrasoft PP ?                                                          
   IUNSCR =        1    unscreen: 0-lin 1-nonlin 2-no                                               
   RPACOR =    1.500    partial core radius                                                         
   POMASS =   35.453; ZVAL   =    7.000    mass and valenz                                          
   RCORE  =    1.900    outmost cutoff radius                                                       
   RWIGS  =    2.100; RWIGS  =    1.111    wigner-seitz radius (au A)                               
   ENMAX  =  262.472; ENMIN  =  196.854 eV                                                          
   ICORE  =        2    local potential                                                             
   LCOR   =        T    correct aug charges                                                         
   LPAW   =        T    paw PP                                                                      
   EAUG   =  356.192                                                                                
   DEXC   =    0.000                                                                                
   RMAX   =    1.945    core radius for proj-oper                                                   
   RAUG   =    1.300    factor for augmentation sphere                                              
   RDEP   =    2.020    radius for radial grids                                                     
   RDEPT  =    1.678    core radius for aug-charge                                                  
                                                                                                    
   Atomic configuration                                                                             
    6 entries                                                                                       
     n  l   j            E        occ.                                                              
     1  0  0.50     -2751.1850   2.0000                                                             
     2  0  0.50      -252.6861   2.0000                                                             
     2  1  1.50      -191.6157   6.0000                                                             
     3  0  0.50       -20.6916   2.0000                                                             
     3  1  0.50        -8.5949   5.0000                                                             
     3  2  1.50        -8.1635   0.0000                                                             
   Description                                                                                      
     l       E           TYP  RCUT    TYP  RCUT                                                     
     0    -20.6915656     23  1.900                                                                 
     0    -22.0521482     23  1.900                                                                 
     1     -8.5948577     23  1.900                                                                 
     1     -5.3847331     23  1.900                                                                 
     2     -8.1634956     23  1.900                                                                 
  local pseudopotential read in
  partial core-charges read in
  partial kinetic energy density read in
  atomic valenz-charges read in
  non local Contribution for L=           0  read in
    real space projection operators read in
  non local Contribution for L=           0  read in
    real space projection operators read in
  non local Contribution for L=           1  read in
    real space projection operators read in
  non local Contribution for L=           1  read in
    real space projection operators read in
    PAW grid and wavefunctions read in
 
   number of l-projection  operators is LMAX  =           4
   number of lm-projection operators is LMMAX =           8
 
 POTCAR:    PAW_PBE Zn 06Sep2000                  
   SHA256 =  501fddbd8274dd8e9725d4f3de27861d7f1e553a7e18441bc79fed8f346e7f23 Zn/POTCAR             
   COPYR  = (c) Copyright 06Sep2000 Georg Kresse                                                    
   COPYR  = This file is part of the software VASP. Any use, copying, and all other rights are regul
   COPYR  = If you do not have a valid VASP license, you may not use, copy or distribute this file. 
   VRHFIN =Zn: d10 p2                                                                               
   LEXCH  = PE                                                                                      
   EATOM  =  1748.8345 eV,  128.5357 Ry                                                             
                                                                                                    
   TITEL  = PAW_PBE Zn 06Sep2000                                                                    
   LULTRA =        F    use ultrasoft PP ?                                                          
   IUNSCR =        1    unscreen: 0-lin 1-nonlin 2-no                                               
   RPACOR =    2.000    partial core radius                                                         
   POMASS =   65.390; ZVAL   =   12.000    mass and valenz                                          
   RCORE  =    2.300    outmost cutoff radius                                                       
   RWIGS  =    2.400; RWIGS  =    1.270    wigner-seitz radius (au A)                               
   ENMAX  =  276.723; ENMIN  =  207.542 eV                                                          
   RCLOC  =    1.828    cutoff for local pot                                                        
   LCOR   =        T    correct aug charges                                                         
   LPAW   =        T    paw PP                                                                      
   EAUG   =  575.892                                                                                
   DEXC   =    0.000                                                                                
   RMAX   =    2.347    core radius for proj-oper                                                   
   RAUG   =    1.300    factor for augmentation sphere                                              
   RDEP   =    2.324    radius for radial grids                                                     
   RDEPT  =    1.788    core radius for aug-charge                                                  
                                                                                                    
   Atomic configuration                                                                             
    9 entries                                                                                       
     n  l   j            E        occ.                                                              
     1  0  0.50     -9524.6913   2.0000                                                             
     2  0  0.50     -1158.1882   2.0000                                                             
     2  1  1.50     -1003.8506   6.0000                                                             
     3  0  0.50      -129.2194   2.0000                                                             
     3  1  1.50       -83.3890   6.0000                                                             
     3  2  2.50       -10.1410  10.0000                                                             
     4  0  0.50        -5.9785   2.0000                                                             
     4  1  0.50        -4.0817   0.0000                                                             
     4  3  2.50        -1.3606   0.0000                                                             
   Description                                                                                      
     l       E           TYP  RCUT    TYP  RCUT                                                     
     2    -10.1410010     23  2.300                                                                 
     2    -11.5015836     23  2.300                                                                 
     0     -5.9785163     23  2.300                                                                 
     0      1.1858015     23  2.300                                                                 
     1     -2.7211652     23  2.300                                                                 
     1     13.2444212     23  2.300                                                                 
  local pseudopotential read in
  partial core-charges read in
  partial kinetic energy density read in
  atomic valenz-charges read in
  non local Contribution for L=           2  read in
    real space projection operators read in
  non local Contribution for L=           2  read in
    real space projection operators read in
  non local Contribution for L=           0  read in
    real space projection operators read in
  non local Contribution for L=           0  read in
    real space projection operators read in
  non local Contribution for L=           1  read in
    real space projection operators read in
  non local Contribution for L=           1  read in
    real space projection operators read in
    PAW grid and wavefunctions read in
 
   number of l-projection  operators is LMAX  =           6
   number of lm-projection operators is LMMAX =          18
 
 POTCAR:    PAW_PBE S 06Sep2000                   
   SHA256 =  0fc7481fb0695f01bdc6462160264c5c84044ae9ec85a907d398b887a2bc3132 S/POTCAR              
   COPYR  = (c) Copyright 06Sep2000 Georg Kresse                                                    
   COPYR  = This file is part of the software VASP. Any use, copying, and all other rights are regul
   COPYR  = If you do not have a valid VASP license, you may not use, copy or distribute this file. 
   VRHFIN =S : s2p4                                                                                 
   LEXCH  = PE                                                                                      
   EATOM  =   276.8230 eV,   20.3459 Ry                                                             
                                                                                                    
   TITEL  = PAW_PBE S 06Sep2000                                                                     
   LULTRA =        F    use ultrasoft PP ?                                                          
   IUNSCR =        1    unscreen: 0-lin 1-nonlin 2-no                                               
   RPACOR =    1.500    partial core radius                                                         
   POMASS =   32.066; ZVAL   =    6.000    mass and valenz                                          
   RCORE  =    1.900    outmost cutoff radius                                                       
   RWIGS  =    2.200; RWIGS  =    1.164    wigner-seitz radius (au A)                               
   ENMAX  =  258.689; ENMIN  =  194.016 eV                                                          
   ICORE  =        2    local potential                                                             
   LCOR   =        T    correct aug charges                                                         
   LPAW   =        T    paw PP                                                                      
   EAUG   =  335.092                                                                                
   DEXC   =    0.000                                                                                
   RMAX   =    1.942    core radius for proj-oper                                                   
   RAUG   =    1.300    factor for augmentation sphere                                              
   RDEP   =    1.954    radius for radial grids                                                     
   RDEPT  =    1.744    core radius for aug-charge                                                  
                                                                                                    
   Atomic configuration                                                                             
    6 entries                                                                                       
     n  l   j            E        occ.                                                              
     1  0  0.50     -2405.8406   2.0000                                                             
     2  0  0.50      -211.7007   2.0000                                                             
     2  1  1.50      -156.4958   6.0000                                                             
     3  0  0.50       -17.2562   2.0000                                                             
     3  1  0.50        -7.0085   4.0000                                                             
     3  2  1.50        -6.8029   0.0000                                                             
   Description                                                                                      
     l       E           TYP  RCUT    TYP  RCUT                                                     
     0    -17.2561641     23  1.900                                                                 
     0    -15.8743224     23  1.900                                                                 
     1     -7.0085400     23  1.900                                                                 
     1     -2.7779785     23  1.900                                                                 
     2     -6.8029130     23  1.900                                                                 
  local pseudopotential read in
  partial core-charges read in
  partial kinetic energy density read in
  atomic valenz-charges read in
  non local Contribution for L=           0  read in
    real space projection operators read in
  non local Contribution for L=           0  read in
    real space projection operators read in
  non local Contribution for L=           1  read in
    real space projection operators read in
  non local Contribution for L=           1  read in
    real space projection operators read in
    PAW grid and wavefunctions read in
 
   number of l-projection  operators is LMAX  =           4
   number of lm-projection operators is LMMAX =           8
 
  PAW_PBE Cd 06Sep2000                  :
 energy of atom  1       EATOM=-1293.1815
 kinetic energy error for atom=    0.0063 (will be added to EATOM!!)
  PAW_PBE Cl 06Sep2000                  :
 energy of atom  2       EATOM= -409.7259
 kinetic energy error for atom=    0.0030 (will be added to EATOM!!)
  PAW_PBE Zn 06Sep2000                  :
 energy of atom  3       EATOM=-1748.8345
 kinetic energy error for atom=    0.0029 (will be added to EATOM!!)
  PAW_PBE S 06Sep2000                   :
 energy of atom  4       EATOM= -276.8230
 kinetic energy error for atom=    0.0020 (will be added to EATOM!!)
 
 
 POSCAR: cif2pos.py
  positions in direct lattice
  velocities in cartesian coordinates
 exchange correlation table for  LEXCH =        8
   RHO(1)=    0.500       N(1)  =     2000
   RHO(2)=  100.500       N(2)  =     4000
 


--------------------------------------------------------------------------------------------------------


 ion  position               nearest neighbor table
   1  1.000  0.000  0.628-   3 2.66   3 2.66   3 2.66   2 2.67   2 2.67   2 2.67
   2  0.667  0.333  0.686-   1 2.67   1 2.67   1 2.67
   3  0.333  0.667  0.571-   1 2.66   1 2.66   1 2.66
   4  0.667  0.333  0.344-   7 2.31   7 2.31   7 2.31   6 2.60   5 3.05   5 3.05   5 3.05
   5  0.333  0.667  0.427-   6 2.31   6 2.31   6 2.31   7 2.61   4 3.05   4 3.05   4 3.05
   6  0.667  0.333  0.448-   5 2.31   5 2.31   5 2.31   4 2.60
   7  0.333  0.667  0.323-   4 2.31   4 2.31   4 2.31   5 2.61
 
  LATTYP: Found a hexagonal cell.
 ALAT       =     3.8854788459
 C/A-ratio  =     6.4342133857
  
  Lattice vectors:
  
 A1 = (   3.8854788459,   0.0000000000,   0.0000000000)
 A2 = (  -1.9427394229,   3.3649345482,   0.0000000000)
 A3 = (   0.0000000000,   0.0000000000,  25.0000000000)


Analysis of symmetry for initial positions (statically):
=====================================================================
 Subroutine PRICEL returns:
 Original cell was already a primitive cell.
 

 Routine SETGRP: Setting up the symmetry group for a 
 hexagonal supercell.


 Subroutine GETGRP returns: Found  6 space group operations
 (whereof  6 operations were pure point group operations)
 out of a pool of 24 trial point group operations.


The static configuration has the point symmetry C_3v.


Analysis of symmetry for dynamics (positions and initial velocities):
=====================================================================
 Subroutine PRICEL returns:
 Original cell was already a primitive cell.
 

 Routine SETGRP: Setting up the symmetry group for a 
 hexagonal supercell.


 Subroutine GETGRP returns: Found  6 space group operations
 (whereof  6 operations were pure point group operations)
 out of a pool of 24 trial point group operations.


The dynamic configuration has the point symmetry C_3v.


 Subroutine INISYM returns: Found  6 space group operations
 (whereof  6 operations are pure point group operations),
 and found     1 'primitive' translations


----------------------------------------------------------------------------------------

                                     Primitive cell                                     

  volume of cell :     326.8596

  direct lattice vectors                    reciprocal lattice vectors
     3.885478846  0.000000000  0.000000000     0.257368535  0.148591300  0.000000000
    -1.942739423  3.364934548  0.000000000     0.000000000  0.297182601  0.000000000
     0.000000000  0.000000000 25.000000000     0.000000000  0.000000000  0.040000000

  length of vectors
     3.885478846  3.885488512 25.000000000     0.297183340  0.297182601  0.040000000

  position of ions in fractional coordinates (direct lattice)
     0.999999994  0.000000006  0.628399986
     0.666669768  0.333330232  0.686480492
     0.333330248  0.666669752  0.570958813
     0.666668220  0.333331780  0.344318821
     0.333331810  0.666668190  0.426750781
     0.666668113  0.333331887  0.448296300
     0.333331846  0.666668154  0.322544807

  ion indices of the primitive-cell ions
   primitive index   ion index
                 1           1
                 2           2
                 3           3
                 4           4
                 5           5
                 6           6
                 7           7

----------------------------------------------------------------------------------------

 
 
 KPOINTS: K-Spacing Value to Generate K-Mesh: 0.02

Automatic generation of k-mesh.
 Grid dimensions read from file:
 generate k-points for:   18   18    1

 Generating k-lattice:

  Cartesian coordinates                     Fractional coordinates (reciprocal lattice)
     0.014298252  0.008255072  0.000000000     0.055555556 -0.000000000  0.000000000
     0.000000000  0.016510144  0.000000000     0.000000000  0.055555556  0.000000000
     0.000000000  0.000000000  0.040000000     0.000000000  0.000000000  1.000000000

  Length of vectors
     0.016510186  0.016510144  0.040000000

  Shift w.r.t. Gamma in fractional coordinates (k-lattice)
     0.500000000  0.500000000  0.000000000

 
 Subroutine IBZKPT returns following result:
 ===========================================
 
 Found     90 irreducible k-points:
 
 Following reciprocal coordinates:
            Coordinates               Weight
  0.027778  0.027778  0.000000      6.000000
  0.083333  0.027778  0.000000     12.000000
  0.138889  0.027778  0.000000     12.000000
  0.194444  0.027778  0.000000     12.000000
  0.250000  0.027778  0.000000     12.000000
  0.305556  0.027778  0.000000     12.000000
  0.361111  0.027778  0.000000     12.000000
  0.416667  0.027778  0.000000     12.000000
  0.472222  0.027778  0.000000     12.000000
 -0.472222  0.027778  0.000000     12.000000
 -0.416667  0.027778  0.000000     12.000000
 -0.361111  0.027778  0.000000     12.000000
 -0.305556  0.027778  0.000000     12.000000
 -0.250000  0.027778  0.000000     12.000000
 -0.194444  0.027778  0.000000     12.000000
 -0.138889  0.027778  0.000000     12.000000
 -0.083333  0.027778  0.000000     12.000000
 -0.027778  0.027778  0.000000      6.000000
  0.083333  0.083333  0.000000      6.000000
  0.138889  0.083333  0.000000     12.000000
  0.194444  0.083333  0.000000     12.000000
  0.250000  0.083333  0.000000     12.000000
  0.305556  0.083333  0.000000     12.000000
  0.361111  0.083333  0.000000     12.000000
  0.416667  0.083333  0.000000     12.000000
  0.472222  0.083333  0.000000     12.000000
 -0.472222  0.083333  0.000000     12.000000
 -0.416667  0.083333  0.000000     12.000000
 -0.361111  0.083333  0.000000     12.000000
 -0.305556  0.083333  0.000000     12.000000
 -0.250000  0.083333  0.000000     12.000000
 -0.194444  0.083333  0.000000     12.000000
 -0.138889  0.083333  0.000000     12.000000
 -0.083333  0.083333  0.000000      6.000000
  0.138889  0.138889  0.000000      6.000000
  0.194444  0.138889  0.000000     12.000000
  0.250000  0.138889  0.000000     12.000000
  0.305556  0.138889  0.000000     12.000000
  0.361111  0.138889  0.000000     12.000000
  0.416667  0.138889  0.000000     12.000000
  0.472222  0.138889  0.000000     12.000000
 -0.472222  0.138889  0.000000     12.000000
 -0.416667  0.138889  0.000000     12.000000
 -0.361111  0.138889  0.000000     12.000000
 -0.305556  0.138889  0.000000     12.000000
 -0.250000  0.138889  0.000000     12.000000
 -0.194444  0.138889  0.000000     12.000000
 -0.138889  0.138889  0.000000      6.000000
  0.194444  0.194444  0.000000      6.000000
  0.250000  0.194444  0.000000     12.000000
  0.305556  0.194444  0.000000     12.000000
  0.361111  0.194444  0.000000     12.000000
  0.416667  0.194444  0.000000     12.000000
  0.472222  0.194444  0.000000     12.000000
 -0.472222  0.194444  0.000000     12.000000
 -0.416667  0.194444  0.000000     12.000000
 -0.361111  0.194444  0.000000     12.000000
 -0.305556  0.194444  0.000000     12.000000
 -0.250000  0.194444  0.000000     12.000000
 -0.194444  0.194444  0.000000      6.000000
  0.250000  0.250000  0.000000      6.000000
  0.305556  0.250000  0.000000     12.000000
  0.361111  0.250000  0.000000     12.000000
  0.416667  0.250000  0.000000     12.000000
  0.472222  0.250000  0.000000     12.000000
 -0.472222  0.250000  0.000000     12.000000
 -0.416667  0.250000  0.000000     12.000000
 -0.361111  0.250000  0.000000     12.000000
 -0.305556  0.250000  0.000000     12.000000
 -0.250000  0.250000  0.000000      6.000000
  0.305556  0.305556  0.000000      6.000000
  0.361111  0.305556  0.000000     12.000000
  0.416667  0.305556  0.000000     12.000000
  0.472222  0.305556  0.000000     12.000000
 -0.472222  0.305556  0.000000     12.000000
 -0.416667  0.305556  0.000000     12.000000
 -0.361111  0.305556  0.000000     12.000000
 -0.305556  0.305556  0.000000      6.000000
  0.361111  0.361111  0.000000      6.000000
  0.416667  0.361111  0.000000     12.000000
  0.472222  0.361111  0.000000     12.000000
 -0.472222  0.361111  0.000000     12.000000
 -0.416667  0.361111  0.000000     12.000000
 -0.361111  0.361111  0.000000      6.000000
  0.416667  0.416667  0.000000      6.000000
  0.472222  0.416667  0.000000     12.000000
 -0.472222  0.416667  0.000000     12.000000
 -0.416667  0.416667  0.000000      6.000000
  0.472222  0.472222  0.000000      6.000000
 -0.472222  0.472222  0.000000      6.000000
 
 Following cartesian coordinates:
            Coordinates               Weight
  0.007149  0.012383  0.000000      6.000000
  0.021447  0.020638  0.000000     12.000000
  0.035746  0.028893  0.000000     12.000000
  0.050044  0.037148  0.000000     12.000000
  0.064342  0.045403  0.000000     12.000000
  0.078640  0.053658  0.000000     12.000000
  0.092939  0.061913  0.000000     12.000000
  0.107237  0.070168  0.000000     12.000000
  0.121535  0.078423  0.000000     12.000000
 -0.121535 -0.061913  0.000000     12.000000
 -0.107237 -0.053658  0.000000     12.000000
 -0.092939 -0.045403  0.000000     12.000000
 -0.078640 -0.037148  0.000000     12.000000
 -0.064342 -0.028893  0.000000     12.000000
 -0.050044 -0.020638  0.000000     12.000000
 -0.035746 -0.012383  0.000000     12.000000
 -0.021447 -0.004128  0.000000     12.000000
 -0.007149  0.004128  0.000000      6.000000
  0.021447  0.037148  0.000000      6.000000
  0.035746  0.045403  0.000000     12.000000
  0.050044  0.053658  0.000000     12.000000
  0.064342  0.061913  0.000000     12.000000
  0.078640  0.070168  0.000000     12.000000
  0.092939  0.078423  0.000000     12.000000
  0.107237  0.086678  0.000000     12.000000
  0.121535  0.094933  0.000000     12.000000
 -0.121535 -0.045403  0.000000     12.000000
 -0.107237 -0.037148  0.000000     12.000000
 -0.092939 -0.028893  0.000000     12.000000
 -0.078640 -0.020638  0.000000     12.000000
 -0.064342 -0.012383  0.000000     12.000000
 -0.050044 -0.004128  0.000000     12.000000
 -0.035746  0.004128  0.000000     12.000000
 -0.021447  0.012383  0.000000      6.000000
  0.035746  0.061913  0.000000      6.000000
  0.050044  0.070168  0.000000     12.000000
  0.064342  0.078423  0.000000     12.000000
  0.078640  0.086678  0.000000     12.000000
  0.092939  0.094933  0.000000     12.000000
  0.107237  0.103188  0.000000     12.000000
  0.121535  0.111443  0.000000     12.000000
 -0.121535 -0.028893  0.000000     12.000000
 -0.107237 -0.020638  0.000000     12.000000
 -0.092939 -0.012383  0.000000     12.000000
 -0.078640 -0.004128  0.000000     12.000000
 -0.064342  0.004128  0.000000     12.000000
 -0.050044  0.012383  0.000000     12.000000
 -0.035746  0.020638  0.000000      6.000000
  0.050044  0.086678  0.000000      6.000000
  0.064342  0.094933  0.000000     12.000000
  0.078640  0.103188  0.000000     12.000000
  0.092939  0.111443  0.000000     12.000000
  0.107237  0.119699  0.000000     12.000000
  0.121535  0.127954  0.000000     12.000000
 -0.121535 -0.012383  0.000000     12.000000
 -0.107237 -0.004128  0.000000     12.000000
 -0.092939  0.004128  0.000000     12.000000
 -0.078640  0.012383  0.000000     12.000000
 -0.064342  0.020638  0.000000     12.000000
 -0.050044  0.028893  0.000000      6.000000
  0.064342  0.111443  0.000000      6.000000
  0.078640  0.119699  0.000000     12.000000
  0.092939  0.127954  0.000000     12.000000
  0.107237  0.136209  0.000000     12.000000
  0.121535  0.144464  0.000000     12.000000
 -0.121535  0.004128  0.000000     12.000000
 -0.107237  0.012383  0.000000     12.000000
 -0.092939  0.020638  0.000000     12.000000
 -0.078640  0.028893  0.000000     12.000000
 -0.064342  0.037148  0.000000      6.000000
  0.078640  0.136209  0.000000      6.000000
  0.092939  0.144464  0.000000     12.000000
  0.107237  0.152719  0.000000     12.000000
  0.121535  0.160974  0.000000     12.000000
 -0.121535  0.020638  0.000000     12.000000
 -0.107237  0.028893  0.000000     12.000000
 -0.092939  0.037148  0.000000     12.000000
 -0.078640  0.045403  0.000000      6.000000
  0.092939  0.160974  0.000000      6.000000
  0.107237  0.169229  0.000000     12.000000
  0.121535  0.177484  0.000000     12.000000
 -0.121535  0.037148  0.000000     12.000000
 -0.107237  0.045403  0.000000     12.000000
 -0.092939  0.053658  0.000000      6.000000
  0.107237  0.185739  0.000000      6.000000
  0.121535  0.193994  0.000000     12.000000
 -0.121535  0.053658  0.000000     12.000000
 -0.107237  0.061913  0.000000      6.000000
  0.121535  0.210504  0.000000      6.000000
 -0.121535  0.070168  0.000000      6.000000
 


--------------------------------------------------------------------------------------------------------




 Dimension of arrays:
   k-points           NKPTS =     90   k-points in BZ     NKDIM =     90   number of bands    NBANDS=     64
   number of dos      NEDOS =   2001   number of ions     NIONS =      7
   non local maximal  LDIM  =      6   non local SUM 2l+1 LMDIM =     18
   total plane-waves  NPLWV = 150528
   max r-space proj   IRMAX =      1   max aug-charges    IRDMAX= 155981
   dimension x,y,z NGX =    28 NGY =   28 NGZ =  192
   dimension x,y,z NGXF=    56 NGYF=   56 NGZF=  384
   support grid    NGXF=   112 NGYF=  112 NGZF=  768
   ions per type =               1   2   2   2
   NGX,Y,Z   is equivalent  to a cutoff of  11.98, 11.98, 12.77 a.u.
   NGXF,Y,Z  is equivalent  to a cutoff of  23.96, 23.96, 25.54 a.u.

 SYSTEM =  unknown system                          
 POSCAR =  cif2pos.py                              

 Startparameter for this run:
   NWRITE =      2    write-flag & timer
   PREC   = accura    normal or accurate (medium, high low for compatibility)
   ISTART =      0    job   : 0-new  1-cont  2-samecut
   ICHARG =      2    charge: 1-file 2-atom 10-const
   ISPIN  =      1    spin polarized calculation?
   LNONCOLLINEAR =      F non collinear calculations
   LSORBIT =      F    spin-orbit coupling
   INIWAV =      1    electr: 0-lowe 1-rand  2-diag
   LASPH  =      T    aspherical Exc in radial PAW
 Electronic Relaxation 1
   ENCUT  =  500.0 eV  36.75 Ry    6.06 a.u.   7.08  7.08 45.58*2*pi/ulx,y,z
   ENINI  =  500.0     initial cutoff
   ENAUG  =  575.9 eV  augmentation charge cutoff
   NELM   =     60;   NELMIN=  2; NELMDL=  0     # of ELM steps 
   EDIFF  = 0.1E-07   stopping-criterion for ELM
   LREAL  =      F    real-space projection
   NLSPLINE    = F    spline interpolate recip. space projectors
   LCOMPAT=      F    compatible to vasp.4.4
   GGA_COMPAT  = T    GGA compatible to vasp.4.4-vasp.4.6
   LMAXPAW     = -100 max onsite density
   LMAXMIX     =    2 max onsite mixed and CHGCAR
   VOSKOWN=      0    Vosko Wilk Nusair interpolation
   ROPT   =    0.00000   0.00000   0.00000   0.00000
 Ionic relaxation
   EDIFFG = 0.1E-06   stopping-criterion for IOM
   NSW    =      0    number of steps for IOM
   NBLOCK =      1;   KBLOCK =      1    inner block; outer block 
   IBRION =     -1    ionic relax: 0-MD 1-quasi-New 2-CG
   NFREE  =      0    steps in history (QN), initial steepest desc. (CG)
   ISIF   =      2    stress and relaxation
   IWAVPR =     10    prediction:  0-non 1-charg 2-wave 3-comb
   ISYM   =      2    0-nonsym 1-usesym 2-fastsym
   LCORR  =      T    Harris-Foulkes like correction to forces

   POTIM  = 0.5000    time-step for ionic-motion
   TEIN   =    0.0    initial temperature
   TEBEG  =    0.0;   TEEND  =   0.0 temperature during run
   SMASS  =  -3.00    Nose mass-parameter (am)
   estimated Nose-frequenzy (Omega)   =  0.10E-29 period in steps = 0.13E+47 mass=  -0.345E-27a.u.
   SCALEE = 1.0000    scale energy and forces
   NPACO  =    256;   APACO  = 10.0  distance and # of slots for P.C.
   PSTRESS=    0.0 pullay stress

  Mass of Ions in am
   POMASS = 112.41 35.45 65.39 32.07
  Ionic Valenz
   ZVAL   =  12.00  7.00 12.00  6.00
  Atomic Wigner-Seitz radii
   RWIGS  =  -1.00 -1.00 -1.00 -1.00
  virtual crystal weights 
   VCA    =   1.00  1.00  1.00  1.00
   NELECT =      62.0000    total number of electrons
   NUPDOWN=      -1.0000    fix difference up-down

 DOS related values:
   EMIN   =  10.00;   EMAX   =-10.00  energy-range for DOS
   EFERMI =   0.00;   METHOD = LEGACY      
   ISMEAR =     0;   SIGMA  =   0.05  broadening in eV -4-tet -1-fermi 0-gaus

 Electronic relaxation 2 (details)
   IALGO  =     38    algorithm
   LDIAG  =      T    sub-space diagonalisation (order eigenvalues)
   LSUBROT=      F    optimize rotation matrix (better conditioning)
   TURBO    =      0    0=normal 1=particle mesh
   IRESTART =      0    0=no restart 2=restart with 2 vectors
   NREBOOT  =      0    no. of reboots
   NMIN     =      0    reboot dimension
   EREF     =   0.00    reference energy to select bands
   IMIX   =      4    mixing-type and parameters
     AMIX     =   0.40;   BMIX     =  1.00
     AMIX_MAG =   1.60;   BMIX_MAG =  1.00
     AMIN     =   0.10
     WC   =   100.;   INIMIX=   1;  MIXPRE=   1;  MAXMIX= -45

 Intra band minimization:
   WEIMIN = 0.0000     energy-eigenvalue tresh-hold
   EBREAK =  0.39E-10  absolut break condition
   DEPER  =   0.30     relativ break condition  

   TIME   =   0.40     timestep for ELM

  volume/ion in A,a.u.               =      46.69       315.11
  Fermi-wavevector in a.u.,A,eV,Ry     =   0.940629  1.777531 12.038201  0.884783
  Thomas-Fermi vector in A             =   2.068060
 
 Write flags
   LWAVE        =      T    write WAVECAR
   LDOWNSAMPLE  =      F    k-point downsampling of WAVECAR
   LCHARG       =      T    write CHGCAR
   LVTOT        =      F    write LOCPOT, total local potential
   LVHAR        =      T    write LOCPOT, Hartree potential only
   LELF         =      F    write electronic localiz. function (ELF)
   LORBIT       =     11    0 simple, 1 ext, 2 COOP (PROOUT), +10 PAW based schemes


 Dipole corrections
   LMONO  =      F    monopole corrections only (constant potential shift)
   LDIPOL =      F    correct potential (dipole corrections)
   IDIPOL =      0    1-x, 2-y, 3-z, 4-all directions 
   EPSILON=  1.0000000 bulk dielectric constant

 Exchange correlation treatment:
   GGA     =    --    GGA type
   LEXCH   =     8    internal setting for exchange type
   LIBXC   =     F    Libxc                    
   VOSKOWN =     0    Vosko Wilk Nusair interpolation
   LHFCALC =     F    Hartree Fock is set to
   LHFONE  =     F    Hartree Fock one center treatment
   AEXX    =    0.0000 exact exchange contribution

 Linear response parameters
   LEPSILON=     F    determine dielectric tensor
   LRPA    =     F    only Hartree local field effects (RPA)
   LNABLA  =     F    use nabla operator in PAW spheres
   LVEL    =     F    velocity operator in full k-point grid
   CSHIFT  =0.1000    complex shift for real part using Kramers Kronig
   OMEGAMAX=  -1.0    maximum frequency
   DEG_THRESHOLD= 0.2000000E-02 threshold for treating states as degnerate
   RTIME   =   -0.100 relaxation time in fs
  (WPLASMAI=    0.000 imaginary part of plasma frequency in eV, 0.658/RTIME)
   DFIELD  = 0.0000000 0.0000000 0.0000000 field for delta impulse in time
 
  Optional k-point grid parameters
   LKPOINTS_OPT  =     F    use optional k-point grid
   KPOINTS_OPT_MODE=     1    mode for optional k-point grid
 
 Orbital magnetization related:
   ORBITALMAG=     F  switch on orbital magnetization
   LCHIMAG   =     F  perturbation theory with respect to B field
   DQ        =  0.001000  dq finite difference perturbation B field
   LLRAUG    =     F  two centre corrections for induced B field
   LBONE     =     F  B-component reconstruction in AE one-centre
   LVGVCALC  =     T  calculate vGv susceptibility
   LVGVAPPL  =     F  apply vGv susceptibility instead of pGv for G=0

 Random number generation:
   RANDOM_GENERATOR = DEFAULT
   PCG_SEED         = not used


--------------------------------------------------------------------------------------------------------


 Static calculation
 charge density and potential will be updated during run
 non-spin polarized calculation
 Variant of blocked Davidson
 Davidson routine will perform the subspace rotation
 perform sub-space diagonalisation
    after iterative eigenvector-optimisation
 modified Broyden-mixing scheme, WC =      100.0
 initial mixing is a Kerker type mixing with AMIX =  0.4000 and BMIX =      1.0000
 Hartree-type preconditioning will be used
 using additional bands           33
 reciprocal scheme for non local part
 use partial core corrections
 calculate Harris-corrections to forces 
   (improved forces if not selfconsistent)
 use gradient corrections 
 use of overlap-Matrix (Vanderbilt PP)
 Gauss-broadening in eV      SIGMA  =   0.05


--------------------------------------------------------------------------------------------------------


  energy-cutoff  :      500.00
  volume of cell :      326.86
      direct lattice vectors                 reciprocal lattice vectors
     3.885478846  0.000000000  0.000000000     0.257368535  0.148591300  0.000000000
    -1.942739423  3.364934548  0.000000000     0.000000000  0.297182601  0.000000000
     0.000000000  0.000000000 25.000000000     0.000000000  0.000000000  0.040000000

  length of vectors
     3.885478846  3.885488512 25.000000000     0.297183340  0.297182601  0.040000000


 
 k-points in units of 2pi/SCALE and weight: K-Spacing Value to Generate K-Mesh: 0.02
   0.00714913  0.01238261  0.00000000       0.006
   0.02144738  0.02063768  0.00000000       0.012
   0.03574563  0.02889275  0.00000000       0.012
   0.05004388  0.03714783  0.00000000       0.012
   0.06434213  0.04540290  0.00000000       0.012
   0.07864039  0.05365797  0.00000000       0.012
   0.09293864  0.06191304  0.00000000       0.012
   0.10723689  0.07016811  0.00000000       0.012
   0.12153514  0.07842319  0.00000000       0.012
  -0.12153514 -0.06191304  0.00000000       0.012
  -0.10723689 -0.05365797  0.00000000       0.012
  -0.09293864 -0.04540290  0.00000000       0.012
  -0.07864039 -0.03714783  0.00000000       0.012
  -0.06434213 -0.02889275  0.00000000       0.012
  -0.05004388 -0.02063768  0.00000000       0.012
  -0.03574563 -0.01238261  0.00000000       0.012
  -0.02144738 -0.00412754  0.00000000       0.012
  -0.00714913  0.00412754  0.00000000       0.006
   0.02144738  0.03714783  0.00000000       0.006
   0.03574563  0.04540290  0.00000000       0.012
   0.05004388  0.05365797  0.00000000       0.012
   0.06434213  0.06191304  0.00000000       0.012
   0.07864039  0.07016811  0.00000000       0.012
   0.09293864  0.07842319  0.00000000       0.012
   0.10723689  0.08667826  0.00000000       0.012
   0.12153514  0.09493333  0.00000000       0.012
  -0.12153514 -0.04540290  0.00000000       0.012
  -0.10723689 -0.03714783  0.00000000       0.012
  -0.09293864 -0.02889275  0.00000000       0.012
  -0.07864039 -0.02063768  0.00000000       0.012
  -0.06434213 -0.01238261  0.00000000       0.012
  -0.05004388 -0.00412754  0.00000000       0.012
  -0.03574563  0.00412754  0.00000000       0.012
  -0.02144738  0.01238261  0.00000000       0.006
   0.03574563  0.06191304  0.00000000       0.006
   0.05004388  0.07016811  0.00000000       0.012
   0.06434213  0.07842319  0.00000000       0.012
   0.07864039  0.08667826  0.00000000       0.012
   0.09293864  0.09493333  0.00000000       0.012
   0.10723689  0.10318840  0.00000000       0.012
   0.12153514  0.11144348  0.00000000       0.012
  -0.12153514 -0.02889275  0.00000000       0.012
  -0.10723689 -0.02063768  0.00000000       0.012
  -0.09293864 -0.01238261  0.00000000       0.012
  -0.07864039 -0.00412754  0.00000000       0.012
  -0.06434213  0.00412754  0.00000000       0.012
  -0.05004388  0.01238261  0.00000000       0.012
  -0.03574563  0.02063768  0.00000000       0.006
   0.05004388  0.08667826  0.00000000       0.006
   0.06434213  0.09493333  0.00000000       0.012
   0.07864039  0.10318840  0.00000000       0.012
   0.09293864  0.11144348  0.00000000       0.012
   0.10723689  0.11969855  0.00000000       0.012
   0.12153514  0.12795362  0.00000000       0.012
  -0.12153514 -0.01238261  0.00000000       0.012
  -0.10723689 -0.00412754  0.00000000       0.012
  -0.09293864  0.00412754  0.00000000       0.012
  -0.07864039  0.01238261  0.00000000       0.012
  -0.06434213  0.02063768  0.00000000       0.012
  -0.05004388  0.02889275  0.00000000       0.006
   0.06434213  0.11144348  0.00000000       0.006
   0.07864039  0.11969855  0.00000000       0.012
   0.09293864  0.12795362  0.00000000       0.012
   0.10723689  0.13620869  0.00000000       0.012
   0.12153514  0.14446376  0.00000000       0.012
  -0.12153514  0.00412754  0.00000000       0.012
  -0.10723689  0.01238261  0.00000000       0.012
  -0.09293864  0.02063768  0.00000000       0.012
  -0.07864039  0.02889275  0.00000000       0.012
  -0.06434213  0.03714783  0.00000000       0.006
   0.07864039  0.13620869  0.00000000       0.006
   0.09293864  0.14446376  0.00000000       0.012
   0.10723689  0.15271884  0.00000000       0.012
   0.12153514  0.16097391  0.00000000       0.012
  -0.12153514  0.02063768  0.00000000       0.012
  -0.10723689  0.02889275  0.00000000       0.012
  -0.09293864  0.03714783  0.00000000       0.012
  -0.07864039  0.04540290  0.00000000       0.006
   0.09293864  0.16097391  0.00000000       0.006
   0.10723689  0.16922898  0.00000000       0.012
   0.12153514  0.17748405  0.00000000       0.012
  -0.12153514  0.03714783  0.00000000       0.012
  -0.10723689  0.04540290  0.00000000       0.012
  -0.09293864  0.05365797  0.00000000       0.006
   0.10723689  0.18573913  0.00000000       0.006
   0.12153514  0.19399420  0.00000000       0.012
  -0.12153514  0.05365797  0.00000000       0.012
  -0.10723689  0.06191304  0.00000000       0.006
   0.12153514  0.21050434  0.00000000       0.006
  -0.12153514  0.07016811  0.00000000       0.006
 
 k-points in reciprocal lattice and weights: K-Spacing Value to Generate K-Mesh: 0.02
   0.02777778  0.02777778  0.00000000       0.006
   0.08333333  0.02777778  0.00000000       0.012
   0.13888889  0.02777778  0.00000000       0.012
   0.19444444  0.02777778  0.00000000       0.012
   0.25000000  0.02777778  0.00000000       0.012
   0.30555556  0.02777778  0.00000000       0.012
   0.36111111  0.02777778  0.00000000       0.012
   0.41666667  0.02777778  0.00000000       0.012
   0.47222222  0.02777778  0.00000000       0.012
  -0.47222222  0.02777778  0.00000000       0.012
  -0.41666667  0.02777778  0.00000000       0.012
  -0.36111111  0.02777778  0.00000000       0.012
  -0.30555556  0.02777778  0.00000000       0.012
  -0.25000000  0.02777778  0.00000000       0.012
  -0.19444444  0.02777778  0.00000000       0.012
  -0.13888889  0.02777778  0.00000000       0.012
  -0.08333333  0.02777778  0.00000000       0.012
  -0.02777778  0.02777778  0.00000000       0.006
   0.08333333  0.08333333  0.00000000       0.006
   0.13888889  0.08333333  0.00000000       0.012
   0.19444444  0.08333333  0.00000000       0.012
   0.25000000  0.08333333  0.00000000       0.012
   0.30555556  0.08333333  0.00000000       0.012
   0.36111111  0.08333333  0.00000000       0.012
   0.41666667  0.08333333  0.00000000       0.012
   0.47222222  0.08333333  0.00000000       0.012
  -0.47222222  0.08333333  0.00000000       0.012
  -0.41666667  0.08333333  0.00000000       0.012
  -0.36111111  0.08333333  0.00000000       0.012
  -0.30555556  0.08333333  0.00000000       0.012
  -0.25000000  0.08333333  0.00000000       0.012
  -0.19444444  0.08333333  0.00000000       0.012
  -0.13888889  0.08333333  0.00000000       0.012
  -0.08333333  0.08333333  0.00000000       0.006
   0.13888889  0.13888889  0.00000000       0.006
   0.19444444  0.13888889  0.00000000       0.012
   0.25000000  0.13888889  0.00000000       0.012
   0.30555556  0.13888889  0.00000000       0.012
   0.36111111  0.13888889  0.00000000       0.012
   0.41666667  0.13888889  0.00000000       0.012
   0.47222222  0.13888889  0.00000000       0.012
  -0.47222222  0.13888889  0.00000000       0.012
  -0.41666667  0.13888889  0.00000000       0.012
  -0.36111111  0.13888889  0.00000000       0.012
  -0.30555556  0.13888889  0.00000000       0.012
  -0.25000000  0.13888889  0.00000000       0.012
  -0.19444444  0.13888889  0.00000000       0.012
  -0.13888889  0.13888889  0.00000000       0.006
   0.19444444  0.19444444  0.00000000       0.006
   0.25000000  0.19444444  0.00000000       0.012
   0.30555556  0.19444444  0.00000000       0.012
   0.36111111  0.19444444  0.00000000       0.012
   0.41666667  0.19444444  0.00000000       0.012
   0.47222222  0.19444444  0.00000000       0.012
  -0.47222222  0.19444444  0.00000000       0.012
  -0.41666667  0.19444444  0.00000000       0.012
  -0.36111111  0.19444444  0.00000000       0.012
  -0.30555556  0.19444444  0.00000000       0.012
  -0.25000000  0.19444444  0.00000000       0.012
  -0.19444444  0.19444444  0.00000000       0.006
   0.25000000  0.25000000  0.00000000       0.006
   0.30555556  0.25000000  0.00000000       0.012
   0.36111111  0.25000000  0.00000000       0.012
   0.41666667  0.25000000  0.00000000       0.012
   0.47222222  0.25000000  0.00000000       0.012
  -0.47222222  0.25000000  0.00000000       0.012
  -0.41666667  0.25000000  0.00000000       0.012
  -0.36111111  0.25000000  0.00000000       0.012
  -0.30555556  0.25000000  0.00000000       0.012
  -0.25000000  0.25000000  0.00000000       0.006
   0.30555556  0.30555556  0.00000000       0.006
   0.36111111  0.30555556  0.00000000       0.012
   0.41666667  0.30555556  0.00000000       0.012
   0.47222222  0.30555556  0.00000000       0.012
  -0.47222222  0.30555556  0.00000000       0.012
  -0.41666667  0.30555556  0.00000000       0.012
  -0.36111111  0.30555556  0.00000000       0.012
  -0.30555556  0.30555556  0.00000000       0.006
   0.36111111  0.36111111  0.00000000       0.006
   0.41666667  0.36111111  0.00000000       0.012
   0.47222222  0.36111111  0.00000000       0.012
  -0.47222222  0.36111111  0.00000000       0.012
  -0.41666667  0.36111111  0.00000000       0.012
  -0.36111111  0.36111111  0.00000000       0.006
   0.41666667  0.41666667  0.00000000       0.006
   0.47222222  0.41666667  0.00000000       0.012
  -0.47222222  0.41666667  0.00000000       0.012
  -0.41666667  0.41666667  0.00000000       0.006
   0.47222222  0.47222222  0.00000000       0.006
  -0.47222222  0.47222222  0.00000000       0.006
 
 position of ions in fractional coordinates (direct lattice) 
   0.99999999  0.00000001  0.62839999
   0.66666977  0.33333023  0.68648049
   0.33333025  0.66666975  0.57095881
   0.66666822  0.33333178  0.34431882
   0.33333181  0.66666819  0.42675078
   0.66666811  0.33333189  0.44829630
   0.33333185  0.66666815  0.32254481
 
 position of ions in cartesian coordinates  (Angst):
   3.88547881  0.00000002 15.70999965
   1.94275750  1.12163441 17.16201231
  -0.00001798  2.24330008 14.27397034
   1.94274847  1.12163962  8.60797052
  -0.00000888  2.24329482 10.66876952
   1.94274785  1.12163998 11.20740749
  -0.00000867  2.24329470  8.06362017
 


--------------------------------------------------------------------------------------------------------


 k-point   1 :   0.0278 0.0278 0.0000  plane waves:    8231
 k-point   2 :   0.0833 0.0278 0.0000  plane waves:    8229
 k-point   3 :   0.1389 0.0278 0.0000  plane waves:    8255
 k-point   4 :   0.1944 0.0278 0.0000  plane waves:    8284
 k-point   5 :   0.2500 0.0278 0.0000  plane waves:    8283
 k-point   6 :   0.3056 0.0278 0.0000  plane waves:    8295
 k-point   7 :   0.3611 0.0278 0.0000  plane waves:    8301
 k-point   8 :   0.4167 0.0278 0.0000  plane waves:    8300
 k-point   9 :   0.4722 0.0278 0.0000  plane waves:    8322
 k-point  10 :  -0.4722 0.0278 0.0000  plane waves:    8318
 k-point  11 :  -0.4167 0.0278 0.0000  plane waves:    8301
 k-point  12 :  -0.3611 0.0278 0.0000  plane waves:    8299
 k-point  13 :  -0.3056 0.0278 0.0000  plane waves:    8290
 k-point  14 :  -0.2500 0.0278 0.0000  plane waves:    8285
 k-point  15 :  -0.1944 0.0278 0.0000  plane waves:    8266
 k-point  16 :  -0.1389 0.0278 0.0000  plane waves:    8247
 k-point  17 :  -0.0833 0.0278 0.0000  plane waves:    8224
 k-point  18 :  -0.0278 0.0278 0.0000  plane waves:    8263
 k-point  19 :   0.0833 0.0833 0.0000  plane waves:    8241
 k-point  20 :   0.1389 0.0833 0.0000  plane waves:    8243
 k-point  21 :   0.1944 0.0833 0.0000  plane waves:    8280
 k-point  22 :   0.2500 0.0833 0.0000  plane waves:    8298
 k-point  23 :   0.3056 0.0833 0.0000  plane waves:    8298
 k-point  24 :   0.3611 0.0833 0.0000  plane waves:    8289
 k-point  25 :   0.4167 0.0833 0.0000  plane waves:    8320
 k-point  26 :   0.4722 0.0833 0.0000  plane waves:    8322
 k-point  27 :  -0.4722 0.0833 0.0000  plane waves:    8307
 k-point  28 :  -0.4167 0.0833 0.0000  plane waves:    8297
 k-point  29 :  -0.3611 0.0833 0.0000  plane waves:    8304
 k-point  30 :  -0.3056 0.0833 0.0000  plane waves:    8298
 k-point  31 :  -0.2500 0.0833 0.0000  plane waves:    8261
 k-point  32 :  -0.1944 0.0833 0.0000  plane waves:    8240
 k-point  33 :  -0.1389 0.0833 0.0000  plane waves:    8226
 k-point  34 :  -0.0833 0.0833 0.0000  plane waves:    8223
 k-point  35 :   0.1389 0.1389 0.0000  plane waves:    8273
 k-point  36 :   0.1944 0.1389 0.0000  plane waves:    8299
 k-point  37 :   0.2500 0.1389 0.0000  plane waves:    8308
 k-point  38 :   0.3056 0.1389 0.0000  plane waves:    8306
 k-point  39 :   0.3611 0.1389 0.0000  plane waves:    8323
 k-point  40 :   0.4167 0.1389 0.0000  plane waves:    8331
 k-point  41 :   0.4722 0.1389 0.0000  plane waves:    8331
 k-point  42 :  -0.4722 0.1389 0.0000  plane waves:    8310
 k-point  43 :  -0.4167 0.1389 0.0000  plane waves:    8320
 k-point  44 :  -0.3611 0.1389 0.0000  plane waves:    8302
 k-point  45 :  -0.3056 0.1389 0.0000  plane waves:    8277
 k-point  46 :  -0.2500 0.1389 0.0000  plane waves:    8265
 k-point  47 :  -0.1944 0.1389 0.0000  plane waves:    8252
 k-point  48 :  -0.1389 0.1389 0.0000  plane waves:    8248
 k-point  49 :   0.1944 0.1944 0.0000  plane waves:    8301
 k-point  50 :   0.2500 0.1944 0.0000  plane waves:    8308
 k-point  51 :   0.3056 0.1944 0.0000  plane waves:    8310
 k-point  52 :   0.3611 0.1944 0.0000  plane waves:    8320
 k-point  53 :   0.4167 0.1944 0.0000  plane waves:    8331
 k-point  54 :   0.4722 0.1944 0.0000  plane waves:    8319
 k-point  55 :  -0.4722 0.1944 0.0000  plane waves:    8312
 k-point  56 :  -0.4167 0.1944 0.0000  plane waves:    8307
 k-point  57 :  -0.3611 0.1944 0.0000  plane waves:    8303
 k-point  58 :  -0.3056 0.1944 0.0000  plane waves:    8285
 k-point  59 :  -0.2500 0.1944 0.0000  plane waves:    8272
 k-point  60 :  -0.1944 0.1944 0.0000  plane waves:    8276
 k-point  61 :   0.2500 0.2500 0.0000  plane waves:    8301
 k-point  62 :   0.3056 0.2500 0.0000  plane waves:    8338
 k-point  63 :   0.3611 0.2500 0.0000  plane waves:    8337
 k-point  64 :   0.4167 0.2500 0.0000  plane waves:    8330
 k-point  65 :   0.4722 0.2500 0.0000  plane waves:    8315
 k-point  66 :  -0.4722 0.2500 0.0000  plane waves:    8318
 k-point  67 :  -0.4167 0.2500 0.0000  plane waves:    8318
 k-point  68 :  -0.3611 0.2500 0.0000  plane waves:    8292
 k-point  69 :  -0.3056 0.2500 0.0000  plane waves:    8296
 k-point  70 :  -0.2500 0.2500 0.0000  plane waves:    8292
 k-point  71 :   0.3056 0.3056 0.0000  plane waves:    8335
 k-point  72 :   0.3611 0.3056 0.0000  plane waves:    8340
 k-point  73 :   0.4167 0.3056 0.0000  plane waves:    8330
 k-point  74 :   0.4722 0.3056 0.0000  plane waves:    8339
 k-point  75 :  -0.4722 0.3056 0.0000  plane waves:    8308
 k-point  76 :  -0.4167 0.3056 0.0000  plane waves:    8316
 k-point  77 :  -0.3611 0.3056 0.0000  plane waves:    8297
 k-point  78 :  -0.3056 0.3056 0.0000  plane waves:    8296
 k-point  79 :   0.3611 0.3611 0.0000  plane waves:    8339
 k-point  80 :   0.4167 0.3611 0.0000  plane waves:    8325
 k-point  81 :   0.4722 0.3611 0.0000  plane waves:    8333
 k-point  82 :  -0.4722 0.3611 0.0000  plane waves:    8290
 k-point  83 :  -0.4167 0.3611 0.0000  plane waves:    8300
 k-point  84 :  -0.3611 0.3611 0.0000  plane waves:    8312
 k-point  85 :   0.4167 0.4167 0.0000  plane waves:    8325
 k-point  86 :   0.4722 0.4167 0.0000  plane waves:    8323
 k-point  87 :  -0.4722 0.4167 0.0000  plane waves:    8316
 k-point  88 :  -0.4167 0.4167 0.0000  plane waves:    8290
 k-point  89 :   0.4722 0.4722 0.0000  plane waves:    8326
 k-point  90 :  -0.4722 0.4722 0.0000  plane waves:    8304

 maximum and minimum number of plane-waves per node :      8340     8223

 maximum number of plane-waves:      8340
 maximum index in each direction: 
   IXMAX=    7   IYMAX=    7   IZMAX=   45
   IXMIN=   -7   IYMIN=   -7   IZMIN=  -45


 serial   3D FFT for wavefunctions
 parallel 3D FFT for charge:
    minimum data exchange during FFTs selected (reduces bandwidth)


 total amount of memory used by VASP MPI-rank0   504144. kBytes
=======================================================================

   base      :      30000. kBytes
   nonl-proj :     433903. kBytes
   fftplans  :       6661. kBytes
   grid      :       9142. kBytes
   one-center:        108. kBytes
   wavefun   :      24330. kBytes
 
     INWAV:  cpu time      0.0001: real time      0.0001
 Broyden mixing: mesh for mixing (old mesh)
   NGX = 15   NGY = 15   NGZ = 91
  (NGX  = 56   NGY  = 56   NGZ  =384)
  gives a total of  20475 points

 initial charge density was supplied:
 charge density of overlapping atoms calculated
 number of electron      62.0000000 magnetization 
 keeping initial charge density in first step


--------------------------------------------------------------------------------------------------------


 Maximum index for augmentation-charges         6343 (set IRDMAX)


--------------------------------------------------------------------------------------------------------


 First call to EWALD:  gamma=   0.257
 Maximum number of real-space cells 5x 5x 1
 Maximum number of reciprocal cells 2x 2x 9

    FEWALD:  cpu time      0.0014: real time      0.0014


--------------------------------------- Ionic step        1  -------------------------------------------




--------------------------------------- Iteration      1(   1)  ---------------------------------------


    POTLOK:  cpu time      0.0855: real time      0.0862
    SETDIJ:  cpu time      0.3224: real time      0.3245
     EDDAV:  cpu time     20.5305: real time     20.6557
       DOS:  cpu time      0.0091: real time      0.0091
    --------------------------------------------
      LOOP:  cpu time     20.9476: real time     21.0755

 eigenvalue-minimisations  : 11520
 total energy-change (2. order) : 0.3726412E+03  (-0.2596980E+04)
 number of electron      62.0000000 magnetization 
 augmentation part       62.0000000 magnetization 

 Free energy of the ion-electron system (eV)
  ---------------------------------------------------
  alpha Z        PSCENC =       106.21724155
  Ewald energy   TEWEN  =     13223.88257343
  -Hartree energ DENC   =    -18883.99784164
  -exchange      EXHF   =         0.00000000
  -V(xc)+E(xc)   XCENC  =       183.94708794
  PAW double counting   =      5192.66373745    -5507.85990336
  entropy T*S    EENTRO =        -0.00422445
  eigenvalues    EBANDS =      -106.13368570
  atomic energy  EATOM  =      6163.92622259
  Solvation  Ediel_sol  =         0.00000000
  ---------------------------------------------------
  free energy    TOTEN  =       372.64120781 eV

  energy without entropy =      372.64543225  energy(sigma->0) =      372.64332003


--------------------------------------------------------------------------------------------------------




--------------------------------------- Iteration      1(   2)  ---------------------------------------


     EDDAV:  cpu time     24.7036: real time     24.8564
       DOS:  cpu time      0.0027: real time      0.0027
    --------------------------------------------
      LOOP:  cpu time     24.7063: real time     24.8591

 eigenvalue-minimisations  : 14176
 total energy-change (2. order) :-0.3633479E+03  (-0.3244761E+03)
 number of electron      62.0000000 magnetization 
 augmentation part       62.0000000 magnetization 

 Free energy of the ion-electron system (eV)
  ---------------------------------------------------
  alpha Z        PSCENC =       106.21724155
  Ewald energy   TEWEN  =     13223.88257343
  -Hartree energ DENC   =    -18883.99784164
  -exchange      EXHF   =         0.00000000
  -V(xc)+E(xc)   XCENC  =       183.94708794
  PAW double counting   =      5192.66373745    -5507.85990336
  entropy T*S    EENTRO =        -0.00000000
  eigenvalues    EBANDS =      -469.48580239
  atomic energy  EATOM  =      6163.92622259
  Solvation  Ediel_sol  =         0.00000000
  ---------------------------------------------------
  free energy    TOTEN  =         9.29331556 eV

  energy without entropy =        9.29331556  energy(sigma->0) =        9.29331556


--------------------------------------------------------------------------------------------------------




--------------------------------------- Iteration      1(   3)  ---------------------------------------


     EDDAV:  cpu time     28.4687: real time     28.6396
       DOS:  cpu time      0.0019: real time      0.0019
    --------------------------------------------
      LOOP:  cpu time     28.4706: real time     28.6415

 eigenvalue-minimisations  : 16096
 total energy-change (2. order) :-0.3125076E+02  (-0.3105634E+02)
 number of electron      62.0000000 magnetization 
 augmentation part       62.0000000 magnetization 

 Free energy of the ion-electron system (eV)
  ---------------------------------------------------
  alpha Z        PSCENC =       106.21724155
  Ewald energy   TEWEN  =     13223.88257343
  -Hartree energ DENC   =    -18883.99784164
  -exchange      EXHF   =         0.00000000
  -V(xc)+E(xc)   XCENC  =       183.94708794
  PAW double counting   =      5192.66373745    -5507.85990336
  entropy T*S    EENTRO =        -0.00000000
  eigenvalues    EBANDS =      -500.73655779
  atomic energy  EATOM  =      6163.92622259
  Solvation  Ediel_sol  =         0.00000000
  ---------------------------------------------------
  free energy    TOTEN  =       -21.95743984 eV

  energy without entropy =      -21.95743984  energy(sigma->0) =      -21.95743984


--------------------------------------------------------------------------------------------------------




--------------------------------------- Iteration      1(   4)  ---------------------------------------


     EDDAV:  cpu time     25.6355: real time     25.7893
       DOS:  cpu time      0.0028: real time      0.0028
    --------------------------------------------
      LOOP:  cpu time     25.6383: real time     25.7921

 eigenvalue-minimisations  : 14432
 total energy-change (2. order) :-0.4746027E+00  (-0.4745485E+00)
 number of electron      62.0000000 magnetization 
 augmentation part       62.0000000 magnetization 

 Free energy of the ion-electron system (eV)
  ---------------------------------------------------
  alpha Z        PSCENC =       106.21724155
  Ewald energy   TEWEN  =     13223.88257343
  -Hartree energ DENC   =    -18883.99784164
  -exchange      EXHF   =         0.00000000
  -V(xc)+E(xc)   XCENC  =       183.94708794
  PAW double counting   =      5192.66373745    -5507.85990336
  entropy T*S    EENTRO =        -0.00000000
  eigenvalues    EBANDS =      -501.21116053
  atomic energy  EATOM  =      6163.92622259
  Solvation  Ediel_sol  =         0.00000000
  ---------------------------------------------------
  free energy    TOTEN  =       -22.43204257 eV

  energy without entropy =      -22.43204257  energy(sigma->0) =      -22.43204257


--------------------------------------------------------------------------------------------------------




--------------------------------------- Iteration      1(   5)  ---------------------------------------


     EDDAV:  cpu time     27.6573: real time     27.8235
       DOS:  cpu time      0.0024: real time      0.0024
    CHARGE:  cpu time      0.5755: real time      0.5790
    MIXING:  cpu time      0.0137: real time      0.0138
    --------------------------------------------
      LOOP:  cpu time     28.2489: real time     28.4188

 eigenvalue-minimisations  : 15712
 total energy-change (2. order) :-0.1097596E-01  (-0.1097573E-01)
 number of electron      62.0000003 magnetization 
 augmentation part       18.0876311 magnetization 

 Broyden mixing:
  rms(total) = 0.12645E+01    rms(broyden)= 0.12645E+01
  rms(prec ) = 0.12907E+01
  weight for this iteration     100.00

 Free energy of the ion-electron system (eV)
  ---------------------------------------------------
  alpha Z        PSCENC =       106.21724155
  Ewald energy   TEWEN  =     13223.88257343
  -Hartree energ DENC   =    -18883.99784164
  -exchange      EXHF   =         0.00000000
  -V(xc)+E(xc)   XCENC  =       183.94708794
  PAW double counting   =      5192.66373745    -5507.85990336
  entropy T*S    EENTRO =        -0.00000000
  eigenvalues    EBANDS =      -501.22213649
  atomic energy  EATOM  =      6163.92622259
  Solvation  Ediel_sol  =         0.00000000
  ---------------------------------------------------
  free energy    TOTEN  =       -22.44301854 eV

  energy without entropy =      -22.44301854  energy(sigma->0) =      -22.44301854


--------------------------------------------------------------------------------------------------------




--------------------------------------- Iteration      1(   6)  ---------------------------------------


    POTLOK:  cpu time      0.0578: real time      0.0582
    SETDIJ:  cpu time      0.2968: real time      0.2987
     EDDAV:  cpu time     31.5997: real time     31.7890
       DOS:  cpu time      0.0029: real time      0.0030
    CHARGE:  cpu time      0.5868: real time      0.5904
    MIXING:  cpu time      0.0085: real time      0.0086
    --------------------------------------------
      LOOP:  cpu time     32.5526: real time     32.7478

 eigenvalue-minimisations  : 18496
 total energy-change (2. order) : 0.1540762E+01  (-0.2723627E+00)
 number of electron      62.0000003 magnetization 
 augmentation part       18.4191160 magnetization 

 Broyden mixing:
  rms(total) = 0.10302E+01    rms(broyden)= 0.10302E+01
  rms(prec ) = 0.10338E+01
  weight for this iteration     100.00

 eigenvalues of (default mixing * dielectric matrix)
  average eigenvalue GAMMA=   1.8530
  1.8530

 Free energy of the ion-electron system (eV)
  ---------------------------------------------------
  alpha Z        PSCENC =       106.21724155
  Ewald energy   TEWEN  =     13223.88257343
  -Hartree energ DENC   =    -18864.30121584
  -exchange      EXHF   =         0.00000000
  -V(xc)+E(xc)   XCENC  =       184.38279846
  PAW double counting   =      5570.10261272    -5879.06784838
  entropy T*S    EENTRO =        -0.00000000
  eigenvalues    EBANDS =      -526.04464098
  atomic energy  EATOM  =      6163.92622259
  Solvation  Ediel_sol  =         0.00000000
  ---------------------------------------------------
  free energy    TOTEN  =       -20.90225646 eV

  energy without entropy =      -20.90225646  energy(sigma->0) =      -20.90225646


--------------------------------------------------------------------------------------------------------




--------------------------------------- Iteration      1(   7)  ---------------------------------------


    POTLOK:  cpu time      0.0496: real time      0.0499
    SETDIJ:  cpu time      0.2600: real time      0.2615
     EDDAV:  cpu time     29.5083: real time     29.6886
       DOS:  cpu time      0.0024: real time      0.0024
    CHARGE:  cpu time      0.6474: real time      0.6515
    MIXING:  cpu time      0.0101: real time      0.0102
    --------------------------------------------
      LOOP:  cpu time     30.4777: real time     30.6641

 eigenvalue-minimisations  : 16832
 total energy-change (2. order) : 0.9308839E-01  (-0.9337218E-01)
 number of electron      62.0000003 magnetization 
 augmentation part       18.3922163 magnetization 

 Broyden mixing:
  rms(total) = 0.39053E+00    rms(broyden)= 0.39053E+00
  rms(prec ) = 0.39181E+00
  weight for this iteration     100.00

 eigenvalues of (default mixing * dielectric matrix)
  average eigenvalue GAMMA=   1.7518
  1.0066  2.4969

 Free energy of the ion-electron system (eV)
  ---------------------------------------------------
  alpha Z        PSCENC =       106.21724155
  Ewald energy   TEWEN  =     13223.88257343
  -Hartree energ DENC   =    -18866.74968693
  -exchange      EXHF   =         0.00000000
  -V(xc)+E(xc)   XCENC  =       185.12826340
  PAW double counting   =      6201.17178370    -6515.42305884
  entropy T*S    EENTRO =        -0.00000000
  eigenvalues    EBANDS =      -518.96250698
  atomic energy  EATOM  =      6163.92622259
  Solvation  Ediel_sol  =         0.00000000
  ---------------------------------------------------
  free energy    TOTEN  =       -20.80916807 eV

  energy without entropy =      -20.80916807  energy(sigma->0) =      -20.80916807


--------------------------------------------------------------------------------------------------------




--------------------------------------- Iteration      1(   8)  ---------------------------------------


    POTLOK:  cpu time      0.0679: real time      0.0684
    SETDIJ:  cpu time      0.2998: real time      0.3017
     EDDAV:  cpu time     30.0241: real time     30.2150
       DOS:  cpu time      0.0031: real time      0.0031
    CHARGE:  cpu time      0.6398: real time      0.6440
    MIXING:  cpu time      0.0051: real time      0.0051
    --------------------------------------------
      LOOP:  cpu time     31.0398: real time     31.2373

 eigenvalue-minimisations  : 17024
 total energy-change (2. order) : 0.7096019E-02  (-0.6046212E-02)
 number of electron      62.0000003 magnetization 
 augmentation part       18.3940552 magnetization 

 Broyden mixing:
  rms(total) = 0.61479E-01    rms(broyden)= 0.61478E-01
  rms(prec ) = 0.62613E-01
  weight for this iteration     100.00

 eigenvalues of (default mixing * dielectric matrix)
  average eigenvalue GAMMA=   1.4994
  2.4072  1.0455  1.0455

 Free energy of the ion-electron system (eV)
  ---------------------------------------------------
  alpha Z        PSCENC =       106.21724155
  Ewald energy   TEWEN  =     13223.88257343
  -Hartree energ DENC   =    -18863.04491843
  -exchange      EXHF   =         0.00000000
  -V(xc)+E(xc)   XCENC  =       185.07772677
  PAW double counting   =      6559.85489215    -6874.41337255
  entropy T*S    EENTRO =        -0.00000000
  eigenvalues    EBANDS =      -522.30243756
  atomic energy  EATOM  =      6163.92622259
  Solvation  Ediel_sol  =         0.00000000
  ---------------------------------------------------
  free energy    TOTEN  =       -20.80207206 eV

  energy without entropy =      -20.80207206  energy(sigma->0) =      -20.80207206


--------------------------------------------------------------------------------------------------------




--------------------------------------- Iteration      1(   9)  ---------------------------------------


    POTLOK:  cpu time      0.0621: real time      0.0625
    SETDIJ:  cpu time      0.2717: real time      0.2734
     EDDAV:  cpu time     29.3151: real time     29.5006
       DOS:  cpu time      0.0027: real time      0.0027
    CHARGE:  cpu time      0.6262: real time      0.6302
    MIXING:  cpu time      0.0062: real time      0.0062
    --------------------------------------------
      LOOP:  cpu time     30.2840: real time     30.4756

 eigenvalue-minimisations  : 17152
 total energy-change (2. order) : 0.1545373E-02  (-0.7665839E-03)
 number of electron      62.0000003 magnetization 
 augmentation part       18.3920652 magnetization 

 Broyden mixing:
  rms(total) = 0.28713E-01    rms(broyden)= 0.28713E-01
  rms(prec ) = 0.29352E-01
  weight for this iteration     100.00

 eigenvalues of (default mixing * dielectric matrix)
  average eigenvalue GAMMA=   1.5139
  2.4343  0.9088  1.3563  1.3563

 Free energy of the ion-electron system (eV)
  ---------------------------------------------------
  alpha Z        PSCENC =       106.21724155
  Ewald energy   TEWEN  =     13223.88257343
  -Hartree energ DENC   =    -18862.19630658
  -exchange      EXHF   =         0.00000000
  -V(xc)+E(xc)   XCENC  =       185.01726875
  PAW double counting   =      6566.23081532    -6880.75727261
  entropy T*S    EENTRO =        -0.00000000
  eigenvalues    EBANDS =      -523.12106912
  atomic energy  EATOM  =      6163.92622259
  Solvation  Ediel_sol  =         0.00000000
  ---------------------------------------------------
  free energy    TOTEN  =       -20.80052668 eV

  energy without entropy =      -20.80052668  energy(sigma->0) =      -20.80052668


--------------------------------------------------------------------------------------------------------




--------------------------------------- Iteration      1(  10)  ---------------------------------------


    POTLOK:  cpu time      0.0700: real time      0.0705
    SETDIJ:  cpu time      0.2649: real time      0.2667
     EDDAV:  cpu time     29.7568: real time     29.9456
       DOS:  cpu time      0.0098: real time      0.0099
    CHARGE:  cpu time      0.6050: real time      0.6089
    MIXING:  cpu time      0.0064: real time      0.0065
    --------------------------------------------
      LOOP:  cpu time     30.7130: real time     30.9080

 eigenvalue-minimisations  : 16928
 total energy-change (2. order) :-0.2708794E-03  (-0.1399737E-03)
 number of electron      62.0000003 magnetization 
 augmentation part       18.3929908 magnetization 

 Broyden mixing:
  rms(total) = 0.14826E-01    rms(broyden)= 0.14826E-01
  rms(prec ) = 0.15259E-01
  weight for this iteration     100.00

 eigenvalues of (default mixing * dielectric matrix)
  average eigenvalue GAMMA=   1.4843
  2.2838  0.9344  1.0794  1.5619  1.5619

 Free energy of the ion-electron system (eV)
  ---------------------------------------------------
[...]
     32       0.4733      0.00000
     33       1.1807      0.00000
     34       1.8579      0.00000
     35       2.2923      0.00000
     36       2.9417      0.00000
     37       3.6202      0.00000
     38       5.0091      0.00000
     39       5.2090      0.00000
     40       5.3457      0.00000
     41       5.5601      0.00000
     42       5.7551      0.00000
     43       5.8702      0.00000
     44       6.4810      0.00000
     45       6.5979      0.00000
     46       6.8168      0.00000
     47       6.9769      0.00000
     48       7.1912      0.00000
     49       7.6986      0.00000
     50       8.0627      0.00000
     51       8.3005      0.00000
     52       8.6518      0.00000
     53       9.0294      0.00000
     54       9.1672      0.00000
     55       9.3709      0.00000
     56       9.7286      0.00000
     57       9.8204      0.00000
     58      10.2183      0.00000
     59      10.4105      0.00000
     60      10.4898      0.00000
     61      10.8406      0.00000
     62      11.0958      0.00000
     63      11.3466      0.00000
     64      11.5232      0.00000

 k-point    88 :      -0.4167    0.4167    0.0000
  band No.  band energies     occupation 
      1     -17.4076      2.00000
      2     -17.2750      2.00000
      3     -14.5205      2.00000
      4     -14.2210      2.00000
      5     -10.6345      2.00000
      6     -10.5733      2.00000
      7     -10.3647      2.00000
      8     -10.2518      2.00000
      9     -10.2302      2.00000
     10      -8.7784      2.00000
     11      -8.6239      2.00000
     12      -8.6174      2.00000
     13      -8.5775      2.00000
     14      -8.5437      2.00000
     15      -8.4695      2.00000
     16      -8.4328      2.00000
     17      -8.2572      2.00000
     18      -8.1500      2.00000
     19      -8.0635      2.00000
     20      -7.4233      2.00000
     21      -7.0630      2.00000
     22      -6.7096      2.00000
     23      -6.3814      2.00000
     24      -5.6612      2.00000
     25      -5.5530      2.00000
     26      -4.6923      2.00000
     27      -4.5573      2.00000
     28      -4.4199      2.00000
     29      -4.3535      2.00000
     30      -3.5677      2.00000
     31      -3.0872      2.00000
     32       0.4576      0.00000
     33       1.0520      0.00000
     34       1.7529      0.00000
     35       2.3201      0.00000
     36       2.8981      0.00000
     37       3.6220      0.00000
     38       4.9629      0.00000
     39       5.2809      0.00000
     40       5.4349      0.00000
     41       5.5140      0.00000
     42       5.5499      0.00000
     43       5.7594      0.00000
     44       6.3170      0.00000
     45       6.4871      0.00000
     46       6.7770      0.00000
     47       6.8559      0.00000
     48       7.1300      0.00000
     49       7.6698      0.00000
     50       8.1945      0.00000
     51       8.4112      0.00000
     52       8.7744      0.00000
     53       8.8424      0.00000
     54       9.2007      0.00000
     55       9.2901      0.00000
     56       9.3403      0.00000
     57       9.7373      0.00000
     58       9.9871      0.00000
     59      10.4208      0.00000
     60      10.4706      0.00000
     61      10.7447      0.00000
     62      11.0472      0.00000
     63      11.3100      0.00000
     64      11.4576      0.00000

 k-point    89 :       0.4722    0.4722    0.0000
  band No.  band energies     occupation 
      1     -17.3711      2.00000
      2     -17.2751      2.00000
      3     -14.4323      2.00000
      4     -14.2034      2.00000
      5     -10.6288      2.00000
      6     -10.5739      2.00000
      7     -10.3571      2.00000
      8     -10.2400      2.00000
      9     -10.1936      2.00000
     10      -8.7336      2.00000
     11      -8.6230      2.00000
     12      -8.5923      2.00000
     13      -8.5540      2.00000
     14      -8.4797      2.00000
     15      -8.4562      2.00000
     16      -8.4258      2.00000
     17      -8.2754      2.00000
     18      -8.1573      2.00000
     19      -8.0796      2.00000
     20      -7.4670      2.00000
     21      -7.2524      2.00000
     22      -6.8327      2.00000
     23      -6.5603      2.00000
     24      -5.7582      2.00000
     25      -5.5658      2.00000
     26      -4.7427      2.00000
     27      -4.6045      2.00000
     28      -4.4798      2.00000
     29      -4.2898      2.00000
     30      -3.7007      2.00000
     31      -3.1800      2.00000
     32       0.4521      0.00000
     33       1.1498      0.00000
     34       1.8712      0.00000
     35       2.2293      0.00000
     36       2.9291      0.00000
     37       3.5892      0.00000
     38       5.0259      0.00000
     39       5.2639      0.00000
     40       5.3214      0.00000
     41       5.6031      0.00000
     42       6.0287      0.00000
     43       6.1181      0.00000
     44       6.3734      0.00000
     45       6.5890      0.00000
     46       6.8871      0.00000
     47       7.1786      0.00000
     48       7.3609      0.00000
     49       7.4719      0.00000
     50       8.0552      0.00000
     51       8.2315      0.00000
     52       8.7729      0.00000
     53       9.0018      0.00000
     54       9.0925      0.00000
     55       9.6520      0.00000
     56       9.8976      0.00000
     57      10.1098      0.00000
     58      10.2805      0.00000
     59      10.3517      0.00000
     60      10.5391      0.00000
     61      10.7850      0.00000
     62      11.1710      0.00000
     63      11.3027      0.00000
     64      11.5239      0.00000

 k-point    90 :      -0.4722    0.4722    0.0000
  band No.  band energies     occupation 
      1     -17.3772      2.00000
      2     -17.2763      2.00000
      3     -14.4500      2.00000
      4     -14.2063      2.00000
      5     -10.6349      2.00000
      6     -10.5808      2.00000
      7     -10.3582      2.00000
      8     -10.2369      2.00000
      9     -10.1930      2.00000
     10      -8.7447      2.00000
     11      -8.6249      2.00000
     12      -8.5987      2.00000
     13      -8.5351      2.00000
     14      -8.5025      2.00000
     15      -8.4686      2.00000
     16      -8.4249      2.00000
     17      -8.2817      2.00000
     18      -8.1492      2.00000
     19      -8.0795      2.00000
     20      -7.4647      2.00000
     21      -7.2450      2.00000
     22      -6.8337      2.00000
     23      -6.5421      2.00000
     24      -5.7089      2.00000
     25      -5.5611      2.00000
     26      -4.6267      2.00000
     27      -4.6195      2.00000
     28      -4.4303      2.00000
     29      -4.3123      2.00000
     30      -3.6237      2.00000
     31      -3.1621      2.00000
     32       0.4158      0.00000
     33       0.9907      0.00000
     34       1.7650      0.00000
     35       2.2121      0.00000
     36       2.8719      0.00000
     37       3.5551      0.00000
     38       5.0388      0.00000
     39       5.3122      0.00000
     40       5.4155      0.00000
     41       5.7852      0.00000
     42       5.9050      0.00000
     43       5.9428      0.00000
     44       6.3766      0.00000
     45       6.5796      0.00000
     46       6.8775      0.00000
     47       7.0492      0.00000
     48       7.2743      0.00000
     49       7.6006      0.00000
     50       8.0323      0.00000
     51       8.2812      0.00000
     52       8.9274      0.00000
     53       8.9967      0.00000
     54       9.3272      0.00000
     55       9.5293      0.00000
     56       9.6958      0.00000
     57       9.8765      0.00000
     58      10.3426      0.00000
     59      10.4258      0.00000
     60      10.4974      0.00000
     61      10.8527      0.00000
     62      11.2296      0.00000
     63      11.3141      0.00000
     64      11.5325      0.00000


--------------------------------------------------------------------------------------------------------


 soft charge-density along one line, spin component           1
         0         1         2         3         4         5         6         7         8         9
 total charge-density along one line
 
 pseudopotential strength for first ion, spin component:           1
-20.585   0.000  -0.000   0.007  -0.000 -20.542   0.000  -0.000
  0.000 -20.585  -0.000   0.000   0.007   0.000 -20.542  -0.000
 -0.000  -0.000 -20.594   0.000   0.000  -0.000  -0.000 -20.551
  0.007   0.000   0.000 -20.585   0.000   0.007   0.000   0.000
 -0.000   0.007   0.000   0.000 -20.585  -0.000   0.007   0.000
-20.542   0.000  -0.000   0.007  -0.000 -20.481   0.000  -0.000
  0.000 -20.542  -0.000   0.000   0.007   0.000 -20.481  -0.000
 -0.000  -0.000 -20.551   0.000   0.000  -0.000  -0.000 -20.491
  0.007   0.000   0.000 -20.542   0.000   0.007   0.000   0.000
 -0.000   0.007   0.000   0.000 -20.542  -0.000   0.007   0.000
 -0.000   0.000  -0.000  -0.000   0.000  -0.000   0.000  -0.000
 -0.000   0.000  -0.001  -0.000   0.000  -0.000   0.000  -0.001
  0.000  -0.001   0.000   0.000  -0.000   0.000  -0.001   0.000
  0.000  -0.000  -0.001   0.000  -0.000   0.000  -0.000  -0.001
 -0.000   0.000  -0.000  -0.001   0.000  -0.000   0.000  -0.000
  0.000  -0.001   0.000   0.000  -0.000   0.000  -0.001   0.000
  0.000  -0.000  -0.001   0.000  -0.000   0.000  -0.000  -0.001
 -0.000   0.000  -0.000  -0.001   0.000  -0.000   0.000  -0.000
 total augmentation occupancy for first ion, spin component:           1
  4.259   0.000   0.000   1.904   0.000  -2.086  -0.000  -0.000  -1.761   0.000   0.000  -0.000   0.000  -0.000   0.007  -0.000
  0.000   5.165   0.000  -0.000   1.904  -0.000  -2.906  -0.000   0.000  -1.761   0.000   0.000   0.009   0.000  -0.000  -0.004
  0.000   0.000   2.762   0.000   0.000  -0.000  -0.000  -0.676  -0.000  -0.000   0.241  -0.072   0.000  -0.001   0.000  -0.000
  1.904   0.000   0.000   5.165  -0.000  -1.761   0.000  -0.000  -2.906   0.000  -0.000   0.000  -0.000   0.000   0.009   0.000
 -0.000   1.904   0.000  -0.000   4.259   0.000  -1.761  -0.000   0.000  -2.086   0.000  -0.000   0.007  -0.000  -0.000  -0.002
 -2.086  -0.000  -0.000  -1.761  -0.000   1.922   0.000   0.000   1.628  -0.000  -0.000   0.000  -0.000   0.000  -0.007   0.000
 -0.000  -2.906  -0.000   0.000  -1.761   0.000   2.663   0.000  -0.000   1.628   0.000   0.000  -0.007   0.000   0.000   0.003
 -0.000  -0.000  -0.676  -0.000  -0.000   0.000   0.000   0.594   0.000   0.000  -0.239   0.080  -0.000   0.002  -0.000   0.000
 -1.761   0.000  -0.000  -2.906   0.000   1.628   0.000   0.000   2.663  -0.000   0.000  -0.000   0.000  -0.000  -0.007   0.000
  0.000  -1.761  -0.000   0.000  -2.086  -0.000   1.628   0.000  -0.000   1.922  -0.000   0.000  -0.007   0.000   0.000   0.002
  0.000   0.000   0.241  -0.000   0.000  -0.000   0.000  -0.239   0.000  -0.000   2.808  -0.892   0.000  -0.005  -0.000   0.000
 -0.000   0.000  -0.072   0.000  -0.000   0.000   0.000   0.080  -0.000   0.000  -0.892   0.304   0.000   0.002   0.000   0.000
  0.000   0.009   0.000  -0.000   0.007  -0.000  -0.007  -0.000   0.000  -0.007   0.000   0.000   0.188   0.000  -0.000  -0.046
 -0.000   0.000  -0.001   0.000  -0.000   0.000   0.000   0.002  -0.000   0.000  -0.005   0.002   0.000   0.162   0.000   0.000
  0.007  -0.000   0.000   0.009  -0.000  -0.007   0.000  -0.000  -0.007   0.000  -0.000   0.000  -0.000   0.000   0.188   0.000
 -0.000  -0.004  -0.000   0.000  -0.002   0.000   0.003   0.000   0.000   0.002   0.000   0.000  -0.046   0.000   0.000   0.012
 -0.000   0.000  -0.001  -0.000  -0.000  -0.000   0.000  -0.000   0.000  -0.000   0.001  -0.001   0.000  -0.038  -0.000   0.000
 -0.002   0.000  -0.000  -0.004   0.000   0.002  -0.000   0.000   0.003  -0.000   0.000   0.000   0.000  -0.000  -0.046  -0.000


------------------------ aborting loop because EDIFF is reached ----------------------------------------





 total charge

# of ion       s       p       d       tot
------------------------------------------
    1        0.324   0.227   9.618  10.169
    2        1.603   3.503   0.000   5.106
    3        1.604   3.505   0.000   5.109
    4        0.516   0.461   9.805  10.782
    5        0.516   0.460   9.805  10.782
    6        1.326   2.413   0.000   3.739
    7        1.326   2.410   0.000   3.736
--------------------------------------------------
tot          7.216  12.978  29.228  49.423
 
    CHARGE:  cpu time      0.5391: real time      0.5425
    FORLOC:  cpu time      0.0097: real time      0.0098
    FORNL :  cpu time      0.9022: real time      0.9079
    STRESS:  cpu time     14.7746: real time     14.8681
    FORCOR:  cpu time      0.0538: real time      0.0541
    FORHAR:  cpu time      0.0220: real time      0.0222
    MIXING:  cpu time      0.0056: real time      0.0057
    OFIELD:  cpu time      0.0002: real time      0.0001

 ---------------------------------------------------------------------------------------------

         DFTD3 V3.0 Rev 1        
 IVDW         = 11
 DF pbe       
 parameters
 VDW_S6       =    1.0000
 VDW_S8       =    0.7220
 VDW_SR       =    1.2170
 rs18     =    1.0000
 alpha6   =   14.0000
 alpha8   =   16.0000
 k1-k3    =   16.0000    1.3333   -4.0000
 VDW_RADIUS   =   50.2022 A
 VDW_CNRADIUS =   21.1671 A
 Edisp (eV)   -1.20212

 E6    (eV) :    -0.4996
 E8    (eV) :    -0.7025
 % E8        : 58.44
    FORVDW:  cpu time      0.0211: real time      0.0213

  FORCE on cell =-STRESS in cart. coord.  units (eV):
  Direction    XX          YY          ZZ          XY          YZ          ZX
  --------------------------------------------------------------------------------------
  Alpha Z   106.21724   106.21724   106.21724
  Ewald   16132.12121 16132.12714-19040.36948     0.00880     0.00455    -0.00581
  Hartree 17675.49544 17675.49959-16490.22580     0.00346     0.00047     0.00041
  E(xc)    -302.45854  -302.45855  -303.23849    -0.00000    -0.00001     0.00001
  Local  -34486.84164-34486.85542 34836.89906    -0.01187    -0.00401     0.00374
  n-local   153.74656   160.66688   153.61760    -1.99734     0.35069     0.20317
  augment    38.25852    38.25948    38.40973     0.00014    -0.00015     0.00023
  Kinetic   673.86574   688.94056   699.39571    -4.35204     0.23988     0.13924
  Fock        0.00000     0.00000     0.00000     0.00000     0.00000     0.00000
  vdW        -1.44707    -1.44708    -0.76409     0.00000     0.00000    -0.00000
  -------------------------------------------------------------------------------------
  Total      -0.04638    -0.04638    -0.05851    -0.00000    -0.00000    -0.00000
  in kB      -0.22733    -0.22733    -0.28680    -0.00000    -0.00000    -0.00000
  external pressure =       -0.25 kB  Pullay stress =        0.00 kB


 VOLUME and BASIS-vectors are now :
 -----------------------------------------------------------------------------
  energy-cutoff  :      500.00
  volume of cell :      326.86
      direct lattice vectors                 reciprocal lattice vectors
     3.885478846  0.000000000  0.000000000     0.257368535  0.148591300  0.000000000
    -1.942739423  3.364934548  0.000000000     0.000000000  0.297182601  0.000000000
     0.000000000  0.000000000 25.000000000     0.000000000  0.000000000  0.040000000

  length of vectors
     3.885478846  3.885488512 25.000000000     0.297183340  0.297182601  0.040000000


 FORCES acting on ions
    electron-ion (+dipol)            ewald-force                    non-local-force                 convergence-correction
 -----------------------------------------------------------------------------------------------
   0.572E-05 -.951E-05 -.153E+04   -.177E-04 0.203E-04 0.153E+04   0.186E-19 0.236E-19 -.962E-01   0.102E-09 -.758E-10 0.157E-04
   -.173E-01 0.956E-02 -.137E+04   -.150E-02 0.139E-02 0.137E+04   -.172E-16 0.395E-17 -.300E+01   0.789E-09 -.464E-09 -.649E-06
   0.172E-01 -.952E-02 -.426E+03   0.155E-02 -.140E-02 0.423E+03   0.620E-17 -.104E-16 0.311E+01   -.298E-09 0.216E-09 0.235E-04
   -.293E-03 0.125E-02 0.194E+04   -.390E-02 0.699E-03 -.194E+04   -.740E-17 0.172E-17 0.191E+01   -.185E-08 0.103E-08 -.231E-04
   0.312E-03 -.125E-02 0.287E+03   0.389E-02 -.692E-03 -.285E+03   0.986E-18 -.815E-18 -.177E+01   0.368E-08 -.213E-08 0.640E-06
   -.266E-02 0.251E-02 -.982E+02   -.307E-02 0.603E-03 0.102E+03   0.825E-17 -.172E-16 -.413E+01   -.463E-09 0.257E-09 0.236E-05
   0.277E-02 -.255E-02 0.121E+04   0.305E-02 -.618E-03 -.121E+04   0.940E-18 0.199E-17 0.396E+01   -.161E-10 -.272E-11 -.136E-04
 -----------------------------------------------------------------------------------------------
   0.324E-04 -.169E-04 0.224E-01   -.635E-13 0.615E-13 0.455E-12   -.820E-17 -.207E-16 -.222E-01   0.194E-08 -.117E-08 0.478E-05
 
 
 POSITION                                       TOTAL-FORCE (eV/Angst)
 -----------------------------------------------------------------------------------
      3.88548      0.00000     15.71000        -0.000000      0.000000      0.008337
      1.94276      1.12163     17.16201        -0.000000      0.000000     -0.011497
     -0.00002      2.24330     14.27397         0.000000     -0.000000      0.010962
      1.94275      1.12164      8.60797        -0.000000      0.000000      0.010536
     -0.00001      2.24329     10.66877        -0.000000      0.000000     -0.002507
      1.94275      1.12164     11.20741        -0.000000      0.000000     -0.007249
     -0.00001      2.24329      8.06362        -0.000000      0.000000     -0.008582
 -----------------------------------------------------------------------------------
    total drift:                                0.000032     -0.000017      0.000173


--------------------------------------------------------------------------------------------------------



  FREE ENERGIE OF THE ION-ELECTRON SYSTEM (eV)
  ---------------------------------------------------
  free  energy   TOTEN  =       -22.00353807 eV

  energy  without entropy=      -22.00353807  energy(sigma->0) =      -22.00353807
 


--------------------------------------------------------------------------------------------------------


    POTLOK:  cpu time      0.3348: real time      0.3370


--------------------------------------------------------------------------------------------------------


 writing wavefunctions
     LOOP+:  cpu time    743.8620: real time    748.5201
    4ORBIT:  cpu time      0.0000: real time      0.0000



 total charge

# of ion       s       p       d       tot
------------------------------------------
    1        0.324   0.227   9.618  10.169
    2        1.603   3.503   0.000   5.106
    3        1.604   3.505   0.000   5.109
    4        0.516   0.461   9.805  10.782
    5        0.516   0.460   9.805  10.782
    6        1.326   2.413   0.000   3.739
    7        1.326   2.410   0.000   3.736
--------------------------------------------------
tot          7.216  12.978  29.228  49.423
 

 total amount of memory used by VASP MPI-rank0   504144. kBytes
=======================================================================

   base      :      30000. kBytes
   nonl-proj :     433903. kBytes
   fftplans  :       6661. kBytes
   grid      :       9142. kBytes
   one-center:        108. kBytes
   wavefun   :      24330. kBytes
 
  
  
 General timing and accounting informations for this job:
 ========================================================
  
                  Total CPU time used (sec):      758.968
                            User time (sec):      622.269
                          System time (sec):      136.699
                         Elapsed time (sec):      764.198
  
                   Maximum memory used (kb):      691404.
                   Average memory used (kb):          N/A
  
                          Minor page faults:        26545
                          Major page faults:            3
                 Voluntary context switches:          898
