 vasp.6.4.0 14Feb23 (build Dec 31 2025 13:57:05) complex                        
  
 executed on             LinuxIFC date 2026.06.29  14:53:12
 running   24 mpi-ranks, with    1 threads/rank, on    1 nodes
 distrk:  each k-point on   24 cores,    1 groups
 distr:  one band on NCORE=  12 cores,    2 groups


--------------------------------------------------------------------------------------------------------


 INCAR:
   ISTART = 1            (Read existing wavefunction, if there)
   ISPIN = 1            (Non-Spin polarised DFT)
   LREAL = .FALSE.       (Projection operators: automatic)
   ENCUT = 500        (Cut-off energy for plane wave basis set, in eV)
   LWAVE = .TRUE.        (Write WAVECAR or not)
   LCHARG = .TRUE.        (Write CHGCAR or not)
   ADDGRID = .TRUE.        (Increase grid, helps GGA convergence)
   LASPH = .TRUE.        (Give more accurate total energies and band structure calculations)
   PREC = Accurate      (Accurate strictly avoids any aliasing or wrap around errors)
   LVTOT = .TRUE.      (Write total electrostatic potential into LOCPOT or not)
   LVHAR = .TRUE.      (Write ionic + Hartree electrostatic potential into LOCPOT or not)
   ISMEAR = 0            (gaussian smearing method)
   SIGMA = 0.05         (please check the width of the smearing)
   LORBIT = 11           (PAW radii for projected DOS)
   NEDOS = 2001         (DOSCAR points)
   NELM = 60           (Max electronic SCF steps)
   EDIFF = 1E-08        (SCF energy convergence, in eV)
   IVDW = 11           (DFT-D3 method of method with no damping)
   NPAR = 2
   KPAR = 1

 POTCAR:    PAW_PBE Cd 06Sep2000                  
 POTCAR:    PAW_PBE Cl 06Sep2000                  
 POTCAR:    PAW_PBE Zn 06Sep2000                  
 POTCAR:    PAW_PBE S 06Sep2000                   
 POTCAR:    PAW_PBE Cd 06Sep2000                  
   SHA256 =  8b7ca71966beae5276c8bb910adb3ecc013a3354c27473914c94cd54c83be4f7 Cd/POTCAR             
   COPYR  = (c) Copyright 06Sep2000 Georg Kresse                                                    
   COPYR  = This file is part of the software VASP. Any use, copying, and all other rights are regul
   COPYR  = If you do not have a valid VASP license, you may not use, copy or distribute this file. 
   VRHFIN =Cd : s2 d10                                                                              
   LEXCH  = PE                                                                                      
   EATOM  =  1293.1815 eV,   95.0462 Ry                                                             
                                                                                                    
   TITEL  = PAW_PBE Cd 06Sep2000                                                                    
   LULTRA =        F    use ultrasoft PP ?                                                          
   IUNSCR =        1    unscreen: 0-lin 1-nonlin 2-no                                               
   RPACOR =    2.000    partial core radius                                                         
   POMASS =  112.411; ZVAL   =   12.000    mass and valenz                                          
   RCORE  =    2.300    outmost cutoff radius                                                       
   RWIGS  =    2.980; RWIGS  =    1.577    wigner-seitz radius (au A)                               
   ENMAX  =  274.336; ENMIN  =  205.752 eV                                                          
   RCLOC  =    2.054    cutoff for local pot                                                        
   LCOR   =        T    correct aug charges                                                         
   LPAW   =        T    paw PP                                                                      
   EAUG   =  456.106                                                                                
   DEXC   =    0.000                                                                                
   RMAX   =    2.358    core radius for proj-oper                                                   
   RAUG   =    1.300    factor for augmentation sphere                                              
   RDEP   =    2.450    radius for radial grids                                                     
   RDEPT  =    1.955    core radius for aug-charge                                                  
                                                                                                    
   Atomic configuration                                                                             
   12 entries                                                                                       
     n  l   j            E        occ.                                                              
     1  0  0.50    -26519.7817   2.0000                                                             
     2  0  0.50     -3936.9612   2.0000                                                             
     2  1  1.50     -3532.2230   6.0000                                                             
     3  0  0.50      -733.7908   2.0000                                                             
     3  1  1.50      -601.0792   6.0000                                                             
     3  2  2.50      -393.5307  10.0000                                                             
     4  0  0.50      -105.8977   2.0000                                                             
     4  1  1.50       -66.9488   6.0000                                                             
     4  2  2.50       -11.7331  10.0000                                                             
     5  0  0.50        -5.6592   2.0000                                                             
     5  1  0.50        -1.3606   0.0000                                                             
     4  3  2.50        -1.3606   0.0000                                                             
   Description                                                                                      
     l       E           TYP  RCUT    TYP  RCUT                                                     
     2    -11.7331479     23  2.300                                                                 
     2    -13.0937305     23  2.300                                                                 
     0     -5.6591502     23  2.300                                                                 
     0     -1.5561433     23  2.300                                                                 
     1     -2.7211652     23  2.300                                                                 
     1      8.3548275     23  2.300                                                                 
  local pseudopotential read in
  partial core-charges read in
  partial kinetic energy density read in
  atomic valenz-charges read in
  non local Contribution for L=           2  read in
    real space projection operators read in
  non local Contribution for L=           2  read in
    real space projection operators read in
  non local Contribution for L=           0  read in
    real space projection operators read in
  non local Contribution for L=           0  read in
    real space projection operators read in
  non local Contribution for L=           1  read in
    real space projection operators read in
  non local Contribution for L=           1  read in
    real space projection operators read in
    PAW grid and wavefunctions read in
 
   number of l-projection  operators is LMAX  =           6
   number of lm-projection operators is LMMAX =          18
 
 POTCAR:    PAW_PBE Cl 06Sep2000                  
   SHA256 =  9f1b6e6ed4247ac726a768b330d26d7667cc3c95a39ff49c1d064c2d9dcce931 Cl/POTCAR             
   COPYR  = (c) Copyright 06Sep2000 Georg Kresse                                                    
   COPYR  = This file is part of the software VASP. Any use, copying, and all other rights are regul
   COPYR  = If you do not have a valid VASP license, you may not use, copy or distribute this file. 
   VRHFIN =Cl: s2p5                                                                                 
   LEXCH  = PE                                                                                      
   EATOM  =   409.7259 eV,   30.1140 Ry                                                             
                                                                                                    
   TITEL  = PAW_PBE Cl 06Sep2000                                                                    
   LULTRA =        F    use ultrasoft PP ?                                                          
   IUNSCR =        1    unscreen: 0-lin 1-nonlin 2-no                                               
   RPACOR =    1.500    partial core radius                                                         
   POMASS =   35.453; ZVAL   =    7.000    mass and valenz                                          
   RCORE  =    1.900    outmost cutoff radius                                                       
   RWIGS  =    2.100; RWIGS  =    1.111    wigner-seitz radius (au A)                               
   ENMAX  =  262.472; ENMIN  =  196.854 eV                                                          
   ICORE  =        2    local potential                                                             
   LCOR   =        T    correct aug charges                                                         
   LPAW   =        T    paw PP                                                                      
   EAUG   =  356.192                                                                                
   DEXC   =    0.000                                                                                
   RMAX   =    1.945    core radius for proj-oper                                                   
   RAUG   =    1.300    factor for augmentation sphere                                              
   RDEP   =    2.020    radius for radial grids                                                     
   RDEPT  =    1.678    core radius for aug-charge                                                  
                                                                                                    
   Atomic configuration                                                                             
    6 entries                                                                                       
     n  l   j            E        occ.                                                              
     1  0  0.50     -2751.1850   2.0000                                                             
     2  0  0.50      -252.6861   2.0000                                                             
     2  1  1.50      -191.6157   6.0000                                                             
     3  0  0.50       -20.6916   2.0000                                                             
     3  1  0.50        -8.5949   5.0000                                                             
     3  2  1.50        -8.1635   0.0000                                                             
   Description                                                                                      
     l       E           TYP  RCUT    TYP  RCUT                                                     
     0    -20.6915656     23  1.900                                                                 
     0    -22.0521482     23  1.900                                                                 
     1     -8.5948577     23  1.900                                                                 
     1     -5.3847331     23  1.900                                                                 
     2     -8.1634956     23  1.900                                                                 
  local pseudopotential read in
  partial core-charges read in
  partial kinetic energy density read in
  atomic valenz-charges read in
  non local Contribution for L=           0  read in
    real space projection operators read in
  non local Contribution for L=           0  read in
    real space projection operators read in
  non local Contribution for L=           1  read in
    real space projection operators read in
  non local Contribution for L=           1  read in
    real space projection operators read in
    PAW grid and wavefunctions read in
 
   number of l-projection  operators is LMAX  =           4
   number of lm-projection operators is LMMAX =           8
 
 POTCAR:    PAW_PBE Zn 06Sep2000                  
   SHA256 =  501fddbd8274dd8e9725d4f3de27861d7f1e553a7e18441bc79fed8f346e7f23 Zn/POTCAR             
   COPYR  = (c) Copyright 06Sep2000 Georg Kresse                                                    
   COPYR  = This file is part of the software VASP. Any use, copying, and all other rights are regul
   COPYR  = If you do not have a valid VASP license, you may not use, copy or distribute this file. 
   VRHFIN =Zn: d10 p2                                                                               
   LEXCH  = PE                                                                                      
   EATOM  =  1748.8345 eV,  128.5357 Ry                                                             
                                                                                                    
   TITEL  = PAW_PBE Zn 06Sep2000                                                                    
   LULTRA =        F    use ultrasoft PP ?                                                          
   IUNSCR =        1    unscreen: 0-lin 1-nonlin 2-no                                               
   RPACOR =    2.000    partial core radius                                                         
   POMASS =   65.390; ZVAL   =   12.000    mass and valenz                                          
   RCORE  =    2.300    outmost cutoff radius                                                       
   RWIGS  =    2.400; RWIGS  =    1.270    wigner-seitz radius (au A)                               
   ENMAX  =  276.723; ENMIN  =  207.542 eV                                                          
   RCLOC  =    1.828    cutoff for local pot                                                        
   LCOR   =        T    correct aug charges                                                         
   LPAW   =        T    paw PP                                                                      
   EAUG   =  575.892                                                                                
   DEXC   =    0.000                                                                                
   RMAX   =    2.347    core radius for proj-oper                                                   
   RAUG   =    1.300    factor for augmentation sphere                                              
   RDEP   =    2.324    radius for radial grids                                                     
   RDEPT  =    1.788    core radius for aug-charge                                                  
                                                                                                    
   Atomic configuration                                                                             
    9 entries                                                                                       
     n  l   j            E        occ.                                                              
     1  0  0.50     -9524.6913   2.0000                                                             
     2  0  0.50     -1158.1882   2.0000                                                             
     2  1  1.50     -1003.8506   6.0000                                                             
     3  0  0.50      -129.2194   2.0000                                                             
     3  1  1.50       -83.3890   6.0000                                                             
     3  2  2.50       -10.1410  10.0000                                                             
     4  0  0.50        -5.9785   2.0000                                                             
     4  1  0.50        -4.0817   0.0000                                                             
     4  3  2.50        -1.3606   0.0000                                                             
   Description                                                                                      
     l       E           TYP  RCUT    TYP  RCUT                                                     
     2    -10.1410010     23  2.300                                                                 
     2    -11.5015836     23  2.300                                                                 
     0     -5.9785163     23  2.300                                                                 
     0      1.1858015     23  2.300                                                                 
     1     -2.7211652     23  2.300                                                                 
     1     13.2444212     23  2.300                                                                 
  local pseudopotential read in
  partial core-charges read in
  partial kinetic energy density read in
  atomic valenz-charges read in
  non local Contribution for L=           2  read in
    real space projection operators read in
  non local Contribution for L=           2  read in
    real space projection operators read in
  non local Contribution for L=           0  read in
    real space projection operators read in
  non local Contribution for L=           0  read in
    real space projection operators read in
  non local Contribution for L=           1  read in
    real space projection operators read in
  non local Contribution for L=           1  read in
    real space projection operators read in
    PAW grid and wavefunctions read in
 
   number of l-projection  operators is LMAX  =           6
   number of lm-projection operators is LMMAX =          18
 
 POTCAR:    PAW_PBE S 06Sep2000                   
   SHA256 =  0fc7481fb0695f01bdc6462160264c5c84044ae9ec85a907d398b887a2bc3132 S/POTCAR              
   COPYR  = (c) Copyright 06Sep2000 Georg Kresse                                                    
   COPYR  = This file is part of the software VASP. Any use, copying, and all other rights are regul
   COPYR  = If you do not have a valid VASP license, you may not use, copy or distribute this file. 
   VRHFIN =S : s2p4                                                                                 
   LEXCH  = PE                                                                                      
   EATOM  =   276.8230 eV,   20.3459 Ry                                                             
                                                                                                    
   TITEL  = PAW_PBE S 06Sep2000                                                                     
   LULTRA =        F    use ultrasoft PP ?                                                          
   IUNSCR =        1    unscreen: 0-lin 1-nonlin 2-no                                               
   RPACOR =    1.500    partial core radius                                                         
   POMASS =   32.066; ZVAL   =    6.000    mass and valenz                                          
   RCORE  =    1.900    outmost cutoff radius                                                       
   RWIGS  =    2.200; RWIGS  =    1.164    wigner-seitz radius (au A)                               
   ENMAX  =  258.689; ENMIN  =  194.016 eV                                                          
   ICORE  =        2    local potential                                                             
   LCOR   =        T    correct aug charges                                                         
   LPAW   =        T    paw PP                                                                      
   EAUG   =  335.092                                                                                
   DEXC   =    0.000                                                                                
   RMAX   =    1.942    core radius for proj-oper                                                   
   RAUG   =    1.300    factor for augmentation sphere                                              
   RDEP   =    1.954    radius for radial grids                                                     
   RDEPT  =    1.744    core radius for aug-charge                                                  
                                                                                                    
   Atomic configuration                                                                             
    6 entries                                                                                       
     n  l   j            E        occ.                                                              
     1  0  0.50     -2405.8406   2.0000                                                             
     2  0  0.50      -211.7007   2.0000                                                             
     2  1  1.50      -156.4958   6.0000                                                             
     3  0  0.50       -17.2562   2.0000                                                             
     3  1  0.50        -7.0085   4.0000                                                             
     3  2  1.50        -6.8029   0.0000                                                             
   Description                                                                                      
     l       E           TYP  RCUT    TYP  RCUT                                                     
     0    -17.2561641     23  1.900                                                                 
     0    -15.8743224     23  1.900                                                                 
     1     -7.0085400     23  1.900                                                                 
     1     -2.7779785     23  1.900                                                                 
     2     -6.8029130     23  1.900                                                                 
  local pseudopotential read in
  partial core-charges read in
  partial kinetic energy density read in
  atomic valenz-charges read in
  non local Contribution for L=           0  read in
    real space projection operators read in
  non local Contribution for L=           0  read in
    real space projection operators read in
  non local Contribution for L=           1  read in
    real space projection operators read in
  non local Contribution for L=           1  read in
    real space projection operators read in
    PAW grid and wavefunctions read in
 
   number of l-projection  operators is LMAX  =           4
   number of lm-projection operators is LMMAX =           8
 
 -----------------------------------------------------------------------------
|                                                                             |
|               ----> ADVICE to this user running VASP <----                  |
|                                                                             |
|     You have a (more or less) 'large supercell' and for larger cells it     |
|     might be more efficient to use real-space projection operators.         |
|     Therefore, try LREAL= Auto in the INCAR file.                           |
|     Mind: For very accurate calculation, you might also keep the            |
|     reciprocal projection scheme (i.e. LREAL=.FALSE.).                      |
|                                                                             |
 -----------------------------------------------------------------------------

  PAW_PBE Cd 06Sep2000                  :
 energy of atom  1       EATOM=-1293.1815
 kinetic energy error for atom=    0.0063 (will be added to EATOM!!)
  PAW_PBE Cl 06Sep2000                  :
 energy of atom  2       EATOM= -409.7259
 kinetic energy error for atom=    0.0030 (will be added to EATOM!!)
  PAW_PBE Zn 06Sep2000                  :
 energy of atom  3       EATOM=-1748.8345
 kinetic energy error for atom=    0.0029 (will be added to EATOM!!)
  PAW_PBE S 06Sep2000                   :
 energy of atom  4       EATOM= -276.8230
 kinetic energy error for atom=    0.0020 (will be added to EATOM!!)
 
 
 POSCAR: cif2pos.py
  positions in direct lattice
  velocities in cartesian coordinates
 exchange correlation table for  LEXCH =        8
   RHO(1)=    0.500       N(1)  =     2000
   RHO(2)=  100.500       N(2)  =     4000
 


--------------------------------------------------------------------------------------------------------


 ion  position               nearest neighbor table
   1  0.333  1.000  0.629-  22 2.66  21 2.66  24 2.66  13 2.67  10 2.67  12 2.67
   2  0.333  0.333  0.628-  22 2.66  23 2.66  19 2.66  14 2.67  11 2.67  10 2.67
   3  0.333  0.667  0.629-  23 2.66  20 2.66  24 2.66  15 2.67  11 2.67  12 2.67
   4  0.667  1.000  0.628-  27 2.66  25 2.66  13 2.67  15 2.67  16 2.67  24 2.68
   5  0.667  0.333  0.628-  22 2.66  26 2.66  25 2.66  14 2.67  17 2.67  13 2.67
   6  0.667  0.667  0.628-  23 2.66  26 2.66  27 2.66  14 2.67  18 2.67  15 2.67
   7  0.000  1.000  0.628-  27 2.66  19 2.66  10 2.67  18 2.67  16 2.67  21 2.68
   8  0.000  0.333  0.628-  25 2.66  19 2.66  11 2.67  17 2.67  16 2.67  20 2.68
   9  0.000  0.667  0.629-  26 2.66  20 2.66  21 2.66  18 2.67  17 2.67  12 2.67
  10  0.222  0.111  0.686-   1 2.67   7 2.67   2 2.67
  11  0.222  0.444  0.686-   3 2.67   8 2.67   2 2.67
  12  0.222  0.778  0.687-   9 2.67   3 2.67   1 2.67
  13  0.556  0.111  0.686-   1 2.67   4 2.67   5 2.67
  14  0.556  0.444  0.687-   2 2.67   5 2.67   6 2.67
  15  0.556  0.778  0.686-   3 2.67   4 2.67   6 2.67
  16  0.889  0.111  0.686-   4 2.67   7 2.67   8 2.67
  17  0.889  0.444  0.686-   9 2.67   8 2.67   5 2.67
  18  0.889  0.778  0.686-   9 2.67   7 2.67   6 2.67
  19  0.112  0.222  0.571-   8 2.66   7 2.66   2 2.66
  20  0.112  0.557  0.570-   3 2.66   9 2.66   8 2.68
  21  0.112  0.888  0.570-   1 2.66   9 2.66   7 2.68
  22  0.444  0.222  0.571-   5 2.66   2 2.66   1 2.66
  23  0.444  0.556  0.571-   6 2.66   2 2.66   3 2.66
  24  0.443  0.888  0.570-   1 2.66   3 2.66   4 2.68
  25  0.778  0.222  0.571-   8 2.66   4 2.66   5 2.66
  26  0.778  0.556  0.571-   6 2.66   5 2.66   9 2.66
  27  0.778  0.888  0.571-   7 2.66   4 2.66   6 2.66
  28  0.221  0.107  0.344-  57 2.32  56 2.32  54 2.32  46 2.58
  29  0.221  0.447  0.344-  58 2.32  55 2.32  54 2.32  47 2.58
  30  0.222  0.778  0.359-  59 2.37  56 2.37  55 2.37  42 2.60  39 2.60  38 2.60
  31  0.553  0.107  0.344-  57 2.32  59 2.32  60 2.32  48 2.58
  32  0.556  0.444  0.344-  61 2.31  58 2.31  57 2.31  49 2.63
  33  0.553  0.779  0.344-  58 2.32  59 2.32  62 2.32  50 2.58
  34  0.889  0.111  0.344-  54 2.31  60 2.31  62 2.31  51 2.62
  35  0.893  0.447  0.344-  61 2.32  55 2.32  60 2.32  52 2.58
  36  0.893  0.779  0.344-  61 2.32  56 2.32  62 2.32  53 2.58
  37  0.112  0.223  0.427-  51 2.32  46 2.35  47 2.35  54 2.57
  38  0.121  0.576  0.424-  52 2.35  47 2.35  55 2.58  30 2.60
  39  0.121  0.879  0.424-  53 2.35  46 2.35  56 2.58  30 2.60
  40  0.444  0.222  0.427-  49 2.31  46 2.31  48 2.31  57 2.60
  41  0.444  0.556  0.427-  49 2.31  47 2.31  50 2.31  58 2.60
  42  0.424  0.879  0.424-  50 2.35  48 2.35  59 2.58  30 2.60
  43  0.777  0.223  0.427-  51 2.32  48 2.35  52 2.35  60 2.57
  44  0.778  0.556  0.427-  49 2.31  52 2.31  53 2.31  61 2.60
  45  0.777  0.888  0.427-  51 2.32  50 2.35  53 2.35  62 2.57
  46  0.221  0.104  0.447-  40 2.31  39 2.35  37 2.35  28 2.58
  47  0.221  0.450  0.447-  41 2.31  38 2.35  37 2.35  29 2.58
  48  0.550  0.104  0.447-  40 2.31  42 2.35  43 2.35  31 2.58
  49  0.556  0.444  0.449-  44 2.31  40 2.31  41 2.31  32 2.63
  50  0.550  0.779  0.447-  41 2.31  42 2.35  45 2.35  33 2.58
  51  0.889  0.111  0.449-  43 2.32  37 2.32  45 2.32  34 2.62
  52  0.896  0.450  0.447-  44 2.31  38 2.35  43 2.35  35 2.58
  53  0.896  0.779  0.447-  44 2.31  39 2.35  45 2.35  36 2.58
  54  0.112  0.223  0.324-  34 2.31  28 2.32  29 2.32  37 2.57
  55  0.115  0.563  0.321-  35 2.32  29 2.32  30 2.37  38 2.58
  56  0.115  0.885  0.321-  36 2.32  28 2.32  30 2.37  39 2.58
  57  0.444  0.222  0.323-  32 2.31  28 2.32  31 2.32  40 2.60
  58  0.444  0.556  0.323-  32 2.31  29 2.32  33 2.32  41 2.60
  59  0.437  0.885  0.321-  33 2.32  31 2.32  30 2.37  42 2.58
  60  0.777  0.223  0.324-  34 2.31  31 2.32  35 2.32  43 2.57
  61  0.778  0.556  0.323-  32 2.31  35 2.32  36 2.32  44 2.60
  62  0.777  0.888  0.324-  34 2.31  33 2.32  36 2.32  45 2.57
 
  LATTYP: Found a hexagonal cell.
 ALAT       =    11.6564000000
 C/A-ratio  =     2.1447445180
  
  Lattice vectors:
  
 A1 = (  11.6564000000,   0.0000000000,   0.0000000000)
 A2 = (  -5.8282323800,  10.0948352900,   0.0000000000)
 A3 = (   0.0000000000,   0.0000000000,  25.0000000000)


Analysis of symmetry for initial positions (statically):
=====================================================================
 Subroutine PRICEL returns:
 Original cell was already a primitive cell.
 

 Routine SETGRP: Setting up the symmetry group for a 
 hexagonal supercell.


 Subroutine GETGRP returns: Found  6 space group operations
 (whereof  2 operations were pure point group operations)
 out of a pool of 24 trial point group operations.


The static configuration has the point symmetry C_1h.
 The point group associated with its full space group is C_3v.


Analysis of symmetry for dynamics (positions and initial velocities):
=====================================================================
 Subroutine PRICEL returns:
 Original cell was already a primitive cell.
 

 Routine SETGRP: Setting up the symmetry group for a 
 hexagonal supercell.


 Subroutine GETGRP returns: Found  6 space group operations
 (whereof  2 operations were pure point group operations)
 out of a pool of 24 trial point group operations.


The dynamic configuration has the point symmetry C_1h.
 The point group associated with its full space group is C_3v.


 Subroutine INISYM returns: Found  6 space group operations
 (whereof  2 operations are pure point group operations),
 and found     1 'primitive' translations


----------------------------------------------------------------------------------------

                                     Primitive cell                                     

  volume of cell :    2941.7360

  direct lattice vectors                    reciprocal lattice vectors
    11.656400000  0.000000000  0.000000000     0.085789781  0.049530553  0.000000000
    -5.828232380 10.094835290  0.000000000     0.000000000  0.099060556  0.000000000
     0.000000000  0.000000000 25.000000000     0.000000000  0.000000000  0.040000000

  length of vectors
    11.656400000 11.656499998 25.000000000     0.099061406  0.099060556  0.040000000

  position of ions in fractional coordinates (direct lattice)
     0.333249039  0.999831705  0.628602175
     0.333489198  0.333411433  0.628471576
     0.333248764  0.666751236  0.628602366
     0.666545240  0.999938936  0.627971870
     0.666589164  0.333410836  0.628471045
     0.666588567  0.666510802  0.628471576
     0.000060705  0.999939295  0.627972199
     0.000061064  0.333454760  0.627971870
     0.000168295  0.666750961  0.628602175
     0.221598539  0.110601019  0.686264979
     0.221598090  0.444331371  0.686265018
     0.222221770  0.777778230  0.686715116
     0.555669385  0.110600687  0.686264787
     0.555555858  0.444444142  0.686593338
     0.555668629  0.778401910  0.686265018
     0.888888859  0.111111141  0.686058223
     0.889399313  0.444330615  0.686264787
     0.889398981  0.778401461  0.686264979
     0.111569929  0.222451442  0.570855416
     0.112052686  0.557438735  0.570423254
     0.112052297  0.887947703  0.570423363
     0.444384484  0.222102151  0.571206715
     0.444384259  0.555615741  0.571206877
     0.442561265  0.887947314  0.570423254
     0.777549140  0.222450860  0.570855192
     0.777897849  0.555615516  0.571206715
     0.777548558  0.888430071  0.570855416
     0.220845556  0.107095583  0.344127633
     0.220846012  0.447083733  0.344127746
     0.222222141  0.777777859  0.359240547
     0.552917628  0.107096524  0.344127636
     0.555555540  0.444444460  0.343663711
     0.552916267  0.779153988  0.344127746
     0.888888937  0.111111063  0.344382775
     0.892903476  0.447082372  0.344127636
     0.892904417  0.779154444  0.344127633
     0.111766895  0.222549954  0.427163377
     0.121234434  0.575801931  0.423778764
     0.121234223  0.878765777  0.423778927
     0.444225520  0.221783806  0.427022312
     0.444225065  0.555774935  0.427022515
     0.424198069  0.878765566  0.423778764
     0.777450402  0.222549598  0.427163512
     0.778216194  0.555774480  0.427022312
     0.777450046  0.888233105  0.427163377
     0.220781808  0.103820836  0.447254321
     0.220781673  0.450293927  0.447254046
     0.549706532  0.103820680  0.447254239
     0.555555981  0.444444019  0.448770606
     0.549706073  0.779218327  0.447254046
     0.888888968  0.111111032  0.449366395
     0.896179320  0.450293468  0.447254239
     0.896179164  0.779218192  0.447254321
     0.111882049  0.222607889  0.324430065
     0.114871830  0.563077346  0.320731214
     0.114871948  0.885128052  0.320731046
     0.444223777  0.221780899  0.322966124
     0.444223551  0.555776449  0.322965921
     0.436922654  0.885128170  0.320731214
     0.777392711  0.222607289  0.324429785
     0.778219101  0.555776223  0.322966124
     0.777392111  0.888117951  0.324430065

  ion indices of the primitive-cell ions
   primitive index   ion index
                 1           1
                 2           2
                 3           3
                 4           4
                 5           5
                 6           6
                 7           7
                 8           8
                 9           9
                10          10
                11          11
                12          12
                13          13
                14          14
                15          15
                16          16
                17          17
                18          18
                19          19
                20          20
                21          21
                22          22
                23          23
                24          24
                25          25
                26          26
                27          27
                28          28
                29          29
                30          30
                31          31
                32          32
                33          33
                34          34
                35          35
                36          36
                37          37
                38          38
                39          39
                40          40
                41          41
                42          42
                43          43
                44          44
                45          45
                46          46
                47          47
                48          48
                49          49
                50          50
                51          51
                52          52
                53          53
                54          54
                55          55
                56          56
                57          57
                58          58
                59          59
                60          60
                61          61
                62          62

----------------------------------------------------------------------------------------

 
 
 KPOINTS: K-Spacing Value to Generate K-Mesh: 0.02

Automatic generation of k-mesh.
 Grid dimensions read from file:
 generate k-points for:    5    5    1

 Generating k-lattice:

  Cartesian coordinates                     Fractional coordinates (reciprocal lattice)
     0.017157956  0.009906111  0.000000000     0.200000000  0.000000000  0.000000000
     0.000000000  0.019812111  0.000000000     0.000000000  0.200000000  0.000000000
     0.000000000  0.000000000  0.040000000     0.000000000  0.000000000  1.000000000

  Length of vectors
     0.019812281  0.019812111  0.040000000

  Shift w.r.t. Gamma in fractional coordinates (k-lattice)
     0.000000000  0.000000000  0.000000000

 
 Subroutine IBZKPT returns following result:
 ===========================================
 
 Found      5 irreducible k-points:
 
 Following reciprocal coordinates:
            Coordinates               Weight
  0.000000  0.000000  0.000000      1.000000
  0.200000  0.000000  0.000000      6.000000
  0.400000  0.000000  0.000000      6.000000
  0.200000  0.200000  0.000000      6.000000
  0.400000  0.200000  0.000000      6.000000
 
 Following cartesian coordinates:
            Coordinates               Weight
  0.000000  0.000000  0.000000      1.000000
  0.017158  0.009906  0.000000      6.000000
  0.034316  0.019812  0.000000      6.000000
  0.017158  0.029718  0.000000      6.000000
  0.034316  0.039624  0.000000      6.000000
 


--------------------------------------------------------------------------------------------------------




 Dimension of arrays:
   k-points           NKPTS =      5   k-points in BZ     NKDIM =      5   number of bands    NBANDS=    332
   number of dos      NEDOS =   2001   number of ions     NIONS =     62
   non local maximal  LDIM  =      6   non local SUM 2l+1 LMDIM =     18
   total plane-waves  NPLWV = ******
   max r-space proj   IRMAX =      1   max aug-charges    IRDMAX= 179030
   dimension x,y,z NGX =    90 NGY =   90 NGZ =  192
   dimension x,y,z NGXF=   180 NGYF=  180 NGZF=  384
   support grid    NGXF=   360 NGYF=  360 NGZF=  768
   ions per type =               9  18  18  17
   NGX,Y,Z   is equivalent  to a cutoff of  12.84, 12.84, 12.77 a.u.
   NGXF,Y,Z  is equivalent  to a cutoff of  25.67, 25.67, 25.54 a.u.

 SYSTEM =  unknown system                          
 POSCAR =  cif2pos.py                              

 Startparameter for this run:
   NWRITE =      2    write-flag & timer
   PREC   = accura    normal or accurate (medium, high low for compatibility)
   ISTART =      0    job   : 0-new  1-cont  2-samecut
   ICHARG =      2    charge: 1-file 2-atom 10-const
   ISPIN  =      1    spin polarized calculation?
   LNONCOLLINEAR =      F non collinear calculations
   LSORBIT =      F    spin-orbit coupling
   INIWAV =      1    electr: 0-lowe 1-rand  2-diag
   LASPH  =      T    aspherical Exc in radial PAW
 Electronic Relaxation 1
   ENCUT  =  500.0 eV  36.75 Ry    6.06 a.u.  21.25 21.25 45.58*2*pi/ulx,y,z
   ENINI  =  500.0     initial cutoff
   ENAUG  =  575.9 eV  augmentation charge cutoff
   NELM   =     60;   NELMIN=  2; NELMDL=  0     # of ELM steps 
   EDIFF  = 0.1E-07   stopping-criterion for ELM
   LREAL  =      F    real-space projection
   NLSPLINE    = F    spline interpolate recip. space projectors
   LCOMPAT=      F    compatible to vasp.4.4
   GGA_COMPAT  = T    GGA compatible to vasp.4.4-vasp.4.6
   LMAXPAW     = -100 max onsite density
   LMAXMIX     =    2 max onsite mixed and CHGCAR
   VOSKOWN=      0    Vosko Wilk Nusair interpolation
   ROPT   =    0.00000   0.00000   0.00000   0.00000
 Ionic relaxation
   EDIFFG = 0.1E-06   stopping-criterion for IOM
   NSW    =      0    number of steps for IOM
   NBLOCK =      1;   KBLOCK =      1    inner block; outer block 
   IBRION =     -1    ionic relax: 0-MD 1-quasi-New 2-CG
   NFREE  =      0    steps in history (QN), initial steepest desc. (CG)
   ISIF   =      2    stress and relaxation
   IWAVPR =     10    prediction:  0-non 1-charg 2-wave 3-comb
   ISYM   =      2    0-nonsym 1-usesym 2-fastsym
   LCORR  =      T    Harris-Foulkes like correction to forces

   POTIM  = 0.5000    time-step for ionic-motion
   TEIN   =    0.0    initial temperature
   TEBEG  =    0.0;   TEEND  =   0.0 temperature during run
   SMASS  =  -3.00    Nose mass-parameter (am)
   estimated Nose-frequenzy (Omega)   =  0.10E-29 period in steps = 0.13E+47 mass=  -0.311E-26a.u.
   SCALEE = 1.0000    scale energy and forces
   NPACO  =    256;   APACO  = 10.0  distance and # of slots for P.C.
   PSTRESS=    0.0 pullay stress

  Mass of Ions in am
   POMASS = 112.41 35.45 65.39 32.07
  Ionic Valenz
   ZVAL   =  12.00  7.00 12.00  6.00
  Atomic Wigner-Seitz radii
   RWIGS  =  -1.00 -1.00 -1.00 -1.00
  virtual crystal weights 
   VCA    =   1.00  1.00  1.00  1.00
   NELECT =     552.0000    total number of electrons
   NUPDOWN=      -1.0000    fix difference up-down

 DOS related values:
   EMIN   =  10.00;   EMAX   =-10.00  energy-range for DOS
   EFERMI =   0.00;   METHOD = LEGACY      
   ISMEAR =     0;   SIGMA  =   0.05  broadening in eV -4-tet -1-fermi 0-gaus

 Electronic relaxation 2 (details)
   IALGO  =     38    algorithm
   LDIAG  =      T    sub-space diagonalisation (order eigenvalues)
   LSUBROT=      F    optimize rotation matrix (better conditioning)
   TURBO    =      0    0=normal 1=particle mesh
   IRESTART =      0    0=no restart 2=restart with 2 vectors
   NREBOOT  =      0    no. of reboots
   NMIN     =      0    reboot dimension
   EREF     =   0.00    reference energy to select bands
   IMIX   =      4    mixing-type and parameters
     AMIX     =   0.40;   BMIX     =  1.00
     AMIX_MAG =   1.60;   BMIX_MAG =  1.00
     AMIN     =   0.10
     WC   =   100.;   INIMIX=   1;  MIXPRE=   1;  MAXMIX= -45

 Intra band minimization:
   WEIMIN = 0.0000     energy-eigenvalue tresh-hold
   EBREAK =  0.75E-11  absolut break condition
   DEPER  =   0.30     relativ break condition  

   TIME   =   0.40     timestep for ELM

  volume/ion in A,a.u.               =      47.45       320.19
  Fermi-wavevector in a.u.,A,eV,Ry     =   0.937245  1.771137 11.951750  0.878429
  Thomas-Fermi vector in A             =   2.064337
 
 Write flags
   LWAVE        =      T    write WAVECAR
   LDOWNSAMPLE  =      F    k-point downsampling of WAVECAR
   LCHARG       =      T    write CHGCAR
   LVTOT        =      F    write LOCPOT, total local potential
   LVHAR        =      T    write LOCPOT, Hartree potential only
   LELF         =      F    write electronic localiz. function (ELF)
   LORBIT       =     11    0 simple, 1 ext, 2 COOP (PROOUT), +10 PAW based schemes


 Dipole corrections
   LMONO  =      F    monopole corrections only (constant potential shift)
   LDIPOL =      F    correct potential (dipole corrections)
   IDIPOL =      0    1-x, 2-y, 3-z, 4-all directions 
   EPSILON=  1.0000000 bulk dielectric constant

 Exchange correlation treatment:
   GGA     =    --    GGA type
   LEXCH   =     8    internal setting for exchange type
   LIBXC   =     F    Libxc                    
   VOSKOWN =     0    Vosko Wilk Nusair interpolation
   LHFCALC =     F    Hartree Fock is set to
   LHFONE  =     F    Hartree Fock one center treatment
   AEXX    =    0.0000 exact exchange contribution

 Linear response parameters
   LEPSILON=     F    determine dielectric tensor
   LRPA    =     F    only Hartree local field effects (RPA)
   LNABLA  =     F    use nabla operator in PAW spheres
   LVEL    =     F    velocity operator in full k-point grid
   CSHIFT  =0.1000    complex shift for real part using Kramers Kronig
   OMEGAMAX=  -1.0    maximum frequency
   DEG_THRESHOLD= 0.2000000E-02 threshold for treating states as degnerate
   RTIME   =   -0.100 relaxation time in fs
  (WPLASMAI=    0.000 imaginary part of plasma frequency in eV, 0.658/RTIME)
   DFIELD  = 0.0000000 0.0000000 0.0000000 field for delta impulse in time
 
  Optional k-point grid parameters
   LKPOINTS_OPT  =     F    use optional k-point grid
   KPOINTS_OPT_MODE=     1    mode for optional k-point grid
 
 Orbital magnetization related:
   ORBITALMAG=     F  switch on orbital magnetization
   LCHIMAG   =     F  perturbation theory with respect to B field
   DQ        =  0.001000  dq finite difference perturbation B field
   LLRAUG    =     F  two centre corrections for induced B field
   LBONE     =     F  B-component reconstruction in AE one-centre
   LVGVCALC  =     T  calculate vGv susceptibility
   LVGVAPPL  =     F  apply vGv susceptibility instead of pGv for G=0

 Random number generation:
   RANDOM_GENERATOR = DEFAULT
   PCG_SEED         = not used


--------------------------------------------------------------------------------------------------------


 Static calculation
 charge density and potential will be updated during run
 non-spin polarized calculation
 Variant of blocked Davidson
 Davidson routine will perform the subspace rotation
 perform sub-space diagonalisation
    after iterative eigenvector-optimisation
 modified Broyden-mixing scheme, WC =      100.0
 initial mixing is a Kerker type mixing with AMIX =  0.4000 and BMIX =      1.0000
 Hartree-type preconditioning will be used
 using additional bands           56
 reciprocal scheme for non local part
 use partial core corrections
 calculate Harris-corrections to forces 
   (improved forces if not selfconsistent)
 use gradient corrections 
 use of overlap-Matrix (Vanderbilt PP)
 Gauss-broadening in eV      SIGMA  =   0.05


--------------------------------------------------------------------------------------------------------


  energy-cutoff  :      500.00
  volume of cell :     2941.74
      direct lattice vectors                 reciprocal lattice vectors
    11.656400000  0.000000000  0.000000000     0.085789781  0.049530553  0.000000000
    -5.828232380 10.094835290  0.000000000     0.000000000  0.099060556  0.000000000
     0.000000000  0.000000000 25.000000000     0.000000000  0.000000000  0.040000000

  length of vectors
    11.656400000 11.656499998 25.000000000     0.099061406  0.099060556  0.040000000


 
 k-points in units of 2pi/SCALE and weight: K-Spacing Value to Generate K-Mesh: 0.02
   0.00000000  0.00000000  0.00000000       0.040
   0.01715796  0.00990611  0.00000000       0.240
   0.03431591  0.01981222  0.00000000       0.240
   0.01715796  0.02971822  0.00000000       0.240
   0.03431591  0.03962433  0.00000000       0.240
 
 k-points in reciprocal lattice and weights: K-Spacing Value to Generate K-Mesh: 0.02
   0.00000000  0.00000000  0.00000000       0.040
   0.20000000  0.00000000  0.00000000       0.240
   0.40000000  0.00000000  0.00000000       0.240
   0.20000000  0.20000000  0.00000000       0.240
   0.40000000  0.20000000  0.00000000       0.240
 
 position of ions in fractional coordinates (direct lattice) 
   0.33324904  0.99983170  0.62860218
   0.33348920  0.33341143  0.62847158
   0.33324876  0.66675124  0.62860237
   0.66654524  0.99993894  0.62797187
   0.66658916  0.33341084  0.62847104
   0.66658857  0.66651080  0.62847158
   0.00006071  0.99993929  0.62797220
   0.00006106  0.33345476  0.62797187
   0.00016830  0.66675096  0.62860218
   0.22159854  0.11060102  0.68626498
   0.22159809  0.44433137  0.68626502
   0.22222177  0.77777823  0.68671512
   0.55566939  0.11060069  0.68626479
   0.55555586  0.44444414  0.68659334
   0.55566863  0.77840191  0.68626502
   0.88888886  0.11111114  0.68605822
   0.88939931  0.44433061  0.68626479
   0.88939898  0.77840146  0.68626498
   0.11156993  0.22245144  0.57085542
   0.11205269  0.55743873  0.57042325
   0.11205230  0.88794770  0.57042336
   0.44438448  0.22210215  0.57120672
   0.44438426  0.55561574  0.57120688
   0.44256127  0.88794731  0.57042325
   0.77754914  0.22245086  0.57085519
   0.77789785  0.55561552  0.57120672
   0.77754856  0.88843007  0.57085542
   0.22084556  0.10709558  0.34412763
   0.22084601  0.44708373  0.34412775
   0.22222214  0.77777786  0.35924055
   0.55291763  0.10709652  0.34412764
   0.55555554  0.44444446  0.34366371
   0.55291627  0.77915399  0.34412775
   0.88888894  0.11111106  0.34438278
   0.89290348  0.44708237  0.34412764
   0.89290442  0.77915444  0.34412763
   0.11176689  0.22254995  0.42716338
   0.12123443  0.57580193  0.42377876
   0.12123422  0.87876578  0.42377893
   0.44422552  0.22178381  0.42702231
   0.44422507  0.55577493  0.42702252
   0.42419807  0.87876557  0.42377876
   0.77745040  0.22254960  0.42716351
   0.77821619  0.55577448  0.42702231
   0.77745005  0.88823311  0.42716338
   0.22078181  0.10382084  0.44725432
   0.22078167  0.45029393  0.44725405
   0.54970653  0.10382068  0.44725424
   0.55555598  0.44444402  0.44877061
   0.54970607  0.77921833  0.44725405
   0.88888897  0.11111103  0.44936640
   0.89617932  0.45029347  0.44725424
   0.89617916  0.77921819  0.44725432
   0.11188205  0.22260789  0.32443007
   0.11487183  0.56307735  0.32073121
   0.11487195  0.88512805  0.32073105
   0.44422378  0.22178090  0.32296612
   0.44422355  0.55577645  0.32296592
   0.43692265  0.88512817  0.32073121
   0.77739271  0.22260729  0.32442979
   0.77821910  0.55577622  0.32296612
   0.77739211  0.88811795  0.32443007
 
 position of ions in cartesian coordinates  (Angst):
  -1.94276742 10.09313638 15.71505438
   1.94408418  3.36573350 15.71178941
  -0.00150024  6.73074390 15.71505915
   1.94164145 10.09421886 15.69929676
   5.82683410  3.36572747 15.71177612
   3.88544313  6.72831676 15.71178941
  -5.82717097 10.09422248 15.69930499
  -1.94274004  3.36617088 15.69929676
  -3.88401782  6.73074113 15.71505438
   1.93843277  1.11649907 17.15662447
  -0.00663050  4.48545200 17.15662546
  -1.94276643  7.85154313 17.16787790
   5.83249812  1.11649572 17.15661967
   3.88545757  4.48659041 17.16483345
   1.94038860  7.85783907 17.15662546
   9.71366254  1.12164867 17.15145558
   7.77753207  4.48544437 17.15661967
   5.83048568  7.85783454 17.15662447
   0.00400502  2.24561066 14.27138539
  -1.94275156  5.62725221 14.26058134
  -3.86903915  8.96368580 14.26058409
   3.88546035  2.24208464 14.28016788
   1.94166302  5.60884939 14.28017193
  -0.01649216  8.96368188 14.26058134
   7.76692848  2.24560480 14.27137981
   5.82923214  5.60884711 14.28016788
   3.88544011  8.96855524 14.27138539
   1.95008619  1.08111227  8.60319082
  -0.03143843  4.51323664  8.60319366
  -1.94275994  7.85153938  8.98101367
   5.82084562  1.08112177  8.60319091
   3.88545200  4.48659362  8.59159278
   1.90392268  7.86543117  8.60319366
   9.71366392  1.12164788  8.60956939
   7.80234013  4.51322290  8.60319091
   5.86695788  7.86543578  8.60319082
   0.00572678  2.24660513 10.67908443
  -1.94275041  5.81262566 10.59446910
  -3.70849655  8.87099577 10.59447318
   3.88546279  2.23887099 10.67555779
   1.93887958  5.61045642 10.67556289
  -0.17702756  8.87099365 10.59446910
   7.76520209  2.24660154 10.67908780
   5.83201642  5.61045184 10.67555779
   3.88543977  8.96656690 10.67908443
   1.96842911  1.04805424 11.18135803
  -0.05089816  4.54564303 11.18135115
   5.80250817  1.04805267 11.18135598
   3.88545971  4.48658917 11.21926516
   1.86612838  7.86608067 11.18135115
   9.71366445  1.12164757 11.23415988
   7.82180965  4.54563839 11.18135598
   5.90475811  7.86607930 11.18135803
   0.00673140  2.24718998  8.11075163
  -1.94275362  5.68417306  8.01828036
  -3.81973859  8.93522189  8.01827616
   3.88545941  2.23884165  8.07415310
   1.93885311  5.61047171  8.07414804
  -0.06578744  8.93522308  8.01828036
   7.76419340  2.24718391  8.11074464
   5.83204014  5.61046943  8.07415310
   3.88543560  8.96540444  8.11075163
 


--------------------------------------------------------------------------------------------------------


 k-point   1 :   0.0000 0.0000 0.0000  plane waves:   74803
 k-point   2 :   0.2000 0.0000 0.0000  plane waves:   74695
 k-point   3 :   0.4000 0.0000 0.0000  plane waves:   74663
 k-point   4 :   0.2000 0.2000 0.0000  plane waves:   74689
 k-point   5 :   0.4000 0.2000 0.0000  plane waves:   74676

 maximum and minimum number of plane-waves per node :      6270     6199

 maximum number of plane-waves:     74803
 maximum index in each direction: 
   IXMAX=   21   IYMAX=   21   IZMAX=   45
   IXMIN=  -21   IYMIN=  -21   IZMIN=  -45


 parallel 3D FFT for wavefunctions:
    minimum data exchange during FFTs selected (reduces bandwidth)
 parallel 3D FFT for charge:
    minimum data exchange during FFTs selected (reduces bandwidth)


 total amount of memory used by VASP MPI-rank0   263262. kBytes
=======================================================================

   base      :      30000. kBytes
   nonl-proj :      24099. kBytes
   fftplans  :      79971. kBytes
   grid      :      45515. kBytes
   one-center:         93. kBytes
   wavefun   :      83584. kBytes
 
     INWAV:  cpu time      0.0001: real time      0.0001
 Broyden mixing: mesh for mixing (old mesh)
   NGX = 43   NGY = 43   NGZ = 91
  (NGX  =180   NGY  =180   NGZ  =384)
  gives a total of 168259 points

 initial charge density was supplied:
 charge density of overlapping atoms calculated
 number of electron     552.0000000 magnetization 
 keeping initial charge density in first step


--------------------------------------------------------------------------------------------------------


 Maximum index for augmentation-charges         7532 (set IRDMAX)


--------------------------------------------------------------------------------------------------------


 First call to EWALD:  gamma=   0.124
 Maximum number of real-space cells 4x 4x 2
 Maximum number of reciprocal cells 2x 2x 4

    FEWALD:  cpu time      0.0058: real time      0.0059


--------------------------------------- Ionic step        1  -------------------------------------------




--------------------------------------- Iteration      1(   1)  ---------------------------------------


    POTLOK:  cpu time      0.5856: real time      0.5913
    SETDIJ:  cpu time      0.7756: real time      0.7818
     EDDAV:  cpu time     58.3254: real time     58.8484
       DOS:  cpu time      0.0126: real time      0.0127
    --------------------------------------------
      LOOP:  cpu time     59.6993: real time     60.2342

 eigenvalue-minimisations  :  3336
 total energy-change (2. order) : 0.4552581E+04  (-0.2279794E+05)
 number of electron     552.0000000 magnetization 
 augmentation part      552.0000000 magnetization 

 Free energy of the ion-electron system (eV)
  ---------------------------------------------------
  alpha Z        PSCENC =       940.95539792
  Ewald energy   TEWEN  =    115619.64207922
  -Hartree energ DENC   =   -166276.36503970
  -exchange      EXHF   =         0.00000000
  -V(xc)+E(xc)   XCENC  =      1641.73394724
  PAW double counting   =     46516.48950506   -49356.44532682
  entropy T*S    EENTRO =        -0.02832118
  eigenvalues    EBANDS =       268.08365101
  atomic energy  EATOM  =     55198.51496693
  Solvation  Ediel_sol  =         0.00000000
  ---------------------------------------------------
  free energy    TOTEN  =      4552.58085968 eV

  energy without entropy =     4552.60918086  energy(sigma->0) =     4552.59502027


--------------------------------------------------------------------------------------------------------




--------------------------------------- Iteration      1(   2)  ---------------------------------------


     EDDAV:  cpu time     65.3570: real time     65.9469
       DOS:  cpu time      0.0174: real time      0.0174
    --------------------------------------------
      LOOP:  cpu time     65.3744: real time     65.9643

 eigenvalue-minimisations  :  3816
 total energy-change (2. order) :-0.4044846E+04  (-0.3860606E+04)
 number of electron     552.0000000 magnetization 
 augmentation part      552.0000000 magnetization 

 Free energy of the ion-electron system (eV)
  ---------------------------------------------------
  alpha Z        PSCENC =       940.95539792
  Ewald energy   TEWEN  =    115619.64207922
  -Hartree energ DENC   =   -166276.36503970
  -exchange      EXHF   =         0.00000000
  -V(xc)+E(xc)   XCENC  =      1641.73394724
  PAW double counting   =     46516.48950506   -49356.44532682
  entropy T*S    EENTRO =        -0.00000000
  eigenvalues    EBANDS =     -3776.79114795
  atomic energy  EATOM  =     55198.51496693
  Solvation  Ediel_sol  =         0.00000000
  ---------------------------------------------------
  free energy    TOTEN  =       507.73438190 eV

  energy without entropy =      507.73438190  energy(sigma->0) =      507.73438190


--------------------------------------------------------------------------------------------------------




--------------------------------------- Iteration      1(   3)  ---------------------------------------


     EDDAV:  cpu time     63.8031: real time     64.4389
       DOS:  cpu time      0.0100: real time      0.0101
    --------------------------------------------
      LOOP:  cpu time     63.8131: real time     64.4490

 eigenvalue-minimisations  :  3808
 total energy-change (2. order) :-0.6661584E+03  (-0.6605054E+03)
 number of electron     552.0000000 magnetization 
 augmentation part      552.0000000 magnetization 

 Free energy of the ion-electron system (eV)
  ---------------------------------------------------
  alpha Z        PSCENC =       940.95539792
  Ewald energy   TEWEN  =    115619.64207922
  -Hartree energ DENC   =   -166276.36503970
  -exchange      EXHF   =         0.00000000
  -V(xc)+E(xc)   XCENC  =      1641.73394724
  PAW double counting   =     46516.48950506   -49356.44532682
  entropy T*S    EENTRO =        -0.00000000
  eigenvalues    EBANDS =     -4442.94959154
  atomic energy  EATOM  =     55198.51496693
  Solvation  Ediel_sol  =         0.00000000
  ---------------------------------------------------
  free energy    TOTEN  =      -158.42406169 eV

  energy without entropy =     -158.42406169  energy(sigma->0) =     -158.42406169


--------------------------------------------------------------------------------------------------------




--------------------------------------- Iteration      1(   4)  ---------------------------------------


     EDDAV:  cpu time     64.2922: real time     64.8884
       DOS:  cpu time      0.0034: real time      0.0034
    --------------------------------------------
      LOOP:  cpu time     64.2956: real time     64.8918

 eigenvalue-minimisations  :  3744
 total energy-change (2. order) :-0.3552222E+02  (-0.3525757E+02)
 number of electron     552.0000000 magnetization 
 augmentation part      552.0000000 magnetization 

 Free energy of the ion-electron system (eV)
  ---------------------------------------------------
  alpha Z        PSCENC =       940.95539792
  Ewald energy   TEWEN  =    115619.64207922
  -Hartree energ DENC   =   -166276.36503970
  -exchange      EXHF   =         0.00000000
  -V(xc)+E(xc)   XCENC  =      1641.73394724
  PAW double counting   =     46516.48950506   -49356.44532682
  entropy T*S    EENTRO =        -0.00000000
  eigenvalues    EBANDS =     -4478.47180723
  atomic energy  EATOM  =     55198.51496693
  Solvation  Ediel_sol  =         0.00000000
  ---------------------------------------------------
  free energy    TOTEN  =      -193.94627738 eV

  energy without entropy =     -193.94627738  energy(sigma->0) =     -193.94627738


--------------------------------------------------------------------------------------------------------




--------------------------------------- Iteration      1(   5)  ---------------------------------------


     EDDAV:  cpu time     64.2708: real time     64.8236
       DOS:  cpu time      0.0076: real time      0.0077
    CHARGE:  cpu time      3.4160: real time      3.4488
    MIXING:  cpu time      0.0164: real time      0.0166
    --------------------------------------------
      LOOP:  cpu time     67.7109: real time     68.2967

 eigenvalue-minimisations  :  3864
 total energy-change (2. order) :-0.1051324E+01  (-0.1049983E+01)
 number of electron     552.0000010 magnetization 
 augmentation part      163.6934107 magnetization 

 Broyden mixing:
  rms(total) = 0.37078E+01    rms(broyden)= 0.37077E+01
  rms(prec ) = 0.37871E+01
  weight for this iteration     100.00

 Free energy of the ion-electron system (eV)
  ---------------------------------------------------
  alpha Z        PSCENC =       940.95539792
  Ewald energy   TEWEN  =    115619.64207922
  -Hartree energ DENC   =   -166276.36503970
  -exchange      EXHF   =         0.00000000
  -V(xc)+E(xc)   XCENC  =      1641.73394724
  PAW double counting   =     46516.48950506   -49356.44532682
  entropy T*S    EENTRO =        -0.00000000
  eigenvalues    EBANDS =     -4479.52313077
  atomic energy  EATOM  =     55198.51496693
  Solvation  Ediel_sol  =         0.00000000
  ---------------------------------------------------
  free energy    TOTEN  =      -194.99760092 eV

  energy without entropy =     -194.99760092  energy(sigma->0) =     -194.99760092


--------------------------------------------------------------------------------------------------------




--------------------------------------- Iteration      1(   6)  ---------------------------------------


    POTLOK:  cpu time      0.5085: real time      0.5131
    SETDIJ:  cpu time      0.6889: real time      0.6940
     EDDAV:  cpu time     73.9959: real time     74.6298
       DOS:  cpu time      0.0110: real time      0.0110
    CHARGE:  cpu time      2.6981: real time      2.7201
    MIXING:  cpu time      0.0140: real time      0.0141
    --------------------------------------------
      LOOP:  cpu time     77.9164: real time     78.5823

 eigenvalue-minimisations  :  4608
 total energy-change (2. order) : 0.1463060E+02  (-0.2801437E+01)
 number of electron     552.0000010 magnetization 
 augmentation part      166.2002948 magnetization 

 Broyden mixing:
  rms(total) = 0.29799E+01    rms(broyden)= 0.29799E+01
  rms(prec ) = 0.29951E+01
  weight for this iteration     100.00

 eigenvalues of (default mixing * dielectric matrix)
  average eigenvalue GAMMA=   2.2239
  2.2239

 Free energy of the ion-electron system (eV)
  ---------------------------------------------------
  alpha Z        PSCENC =       940.95539792
  Ewald energy   TEWEN  =    115619.64207922
  -Hartree energ DENC   =   -166093.11797380
  -exchange      EXHF   =         0.00000000
  -V(xc)+E(xc)   XCENC  =      1645.46775712
  PAW double counting   =     49752.67234263   -52536.22191228
  entropy T*S    EENTRO =        -0.00000000
  eigenvalues    EBANDS =     -4708.27965926
  atomic energy  EATOM  =     55198.51496693
  Solvation  Ediel_sol  =         0.00000000
  ---------------------------------------------------
  free energy    TOTEN  =      -180.36700153 eV

  energy without entropy =     -180.36700153  energy(sigma->0) =     -180.36700153


--------------------------------------------------------------------------------------------------------




--------------------------------------- Iteration      1(   7)  ---------------------------------------


    POTLOK:  cpu time      0.4405: real time      0.4440
    SETDIJ:  cpu time      0.6012: real time      0.6051
     EDDAV:  cpu time     63.3898: real time     63.9596
       DOS:  cpu time      0.0089: real time      0.0089
    CHARGE:  cpu time      2.7454: real time      2.7677
    MIXING:  cpu time      0.0136: real time      0.0137
    --------------------------------------------
      LOOP:  cpu time     67.1993: real time     67.7990

 eigenvalue-minimisations  :  3648
 total energy-change (2. order) :-0.7808527E+00  (-0.3632744E+01)
 number of electron     552.0000011 magnetization 
 augmentation part      166.8797869 magnetization 

 Broyden mixing:
  rms(total) = 0.11648E+01    rms(broyden)= 0.11648E+01
  rms(prec ) = 0.11803E+01
  weight for this iteration     100.00

 eigenvalues of (default mixing * dielectric matrix)
  average eigenvalue GAMMA=   1.7302
  1.1014  2.3590

 Free energy of the ion-electron system (eV)
  ---------------------------------------------------
  alpha Z        PSCENC =       940.95539792
  Ewald energy   TEWEN  =    115619.64207922
  -Hartree energ DENC   =   -166107.84832856
  -exchange      EXHF   =         0.00000000
  -V(xc)+E(xc)   XCENC  =      1654.05049299
  PAW double counting   =     55875.19145989   -58706.05343800
  entropy T*S    EENTRO =        -0.00000000
  eigenvalues    EBANDS =     -4655.60048464
  atomic energy  EATOM  =     55198.51496693
  Solvation  Ediel_sol  =         0.00000000
  ---------------------------------------------------
  free energy    TOTEN  =      -181.14785424 eV

  energy without entropy =     -181.14785424  energy(sigma->0) =     -181.14785424


--------------------------------------------------------------------------------------------------------




--------------------------------------- Iteration      1(   8)  ---------------------------------------


    POTLOK:  cpu time      0.4424: real time      0.4460
    SETDIJ:  cpu time      0.5977: real time      0.6019
     EDDAV:  cpu time     68.1170: real time     68.7188
       DOS:  cpu time      0.0073: real time      0.0073
    CHARGE:  cpu time      3.3482: real time      3.3798
    MIXING:  cpu time      0.0157: real time      0.0159
    --------------------------------------------
      LOOP:  cpu time     72.5283: real time     73.1696

 eigenvalue-minimisations  :  4096
 total energy-change (2. order) : 0.7543593E+00  (-0.4722239E+00)
 number of electron     552.0000011 magnetization 
 augmentation part      166.3164544 magnetization 

 Broyden mixing:
  rms(total) = 0.29991E+00    rms(broyden)= 0.29991E+00
  rms(prec ) = 0.30392E+00
  weight for this iteration     100.00

 eigenvalues of (default mixing * dielectric matrix)
  average eigenvalue GAMMA=   1.4858
  2.2941  1.0816  1.0816

 Free energy of the ion-electron system (eV)
  ---------------------------------------------------
  alpha Z        PSCENC =       940.95539792
  Ewald energy   TEWEN  =    115619.64207922
  -Hartree energ DENC   =   -166101.49375760
  -exchange      EXHF   =         0.00000000
  -V(xc)+E(xc)   XCENC  =      1651.60898061
  PAW double counting   =     57741.88074976   -60580.62341419
  entropy T*S    EENTRO =        -0.00000000
  eigenvalues    EBANDS =     -4650.87849758
  atomic energy  EATOM  =     55198.51496693
  Solvation  Ediel_sol  =         0.00000000
  ---------------------------------------------------
  free energy    TOTEN  =      -180.39349494 eV

  energy without entropy =     -180.39349494  energy(sigma->0) =     -180.39349494


--------------------------------------------------------------------------------------------------------




--------------------------------------- Iteration      1(   9)  ---------------------------------------


    POTLOK:  cpu time      0.4756: real time      0.4796
    SETDIJ:  cpu time      0.7000: real time      0.7055
     EDDAV:  cpu time     69.4515: real time     70.0686
       DOS:  cpu time      0.0105: real time      0.0106
    CHARGE:  cpu time      3.4537: real time      3.4859
    MIXING:  cpu time      0.0156: real time      0.0157
    --------------------------------------------
      LOOP:  cpu time     74.1069: real time     74.7659

 eigenvalue-minimisations  :  4168
 total energy-change (2. order) : 0.3959706E-02  (-0.5798618E-01)
 number of electron     552.0000011 magnetization 
 augmentation part      166.3290702 magnetization 

 Broyden mixing:
  rms(total) = 0.98980E-01    rms(broyden)= 0.98979E-01
  rms(prec ) = 0.10144E+00
  weight for this iteration     100.00

 eigenvalues of (default mixing * dielectric matrix)
  average eigenvalue GAMMA=   1.3894
  2.3108  1.1644  1.1644  0.9181

 Free energy of the ion-electron system (eV)
  ---------------------------------------------------
  alpha Z        PSCENC =       940.95539792
  Ewald energy   TEWEN  =    115619.64207922
  -Hartree energ DENC   =   -166078.20928783
  -exchange      EXHF   =         0.00000000
  -V(xc)+E(xc)   XCENC  =      1651.01421978
  PAW double counting   =     58037.44245201   -60870.12257170
  entropy T*S    EENTRO =        -0.00000000
  eigenvalues    EBANDS =     -4679.62679156
  atomic energy  EATOM  =     55198.51496693
  Solvation  Ediel_sol  =         0.00000000
  ---------------------------------------------------
  free energy    TOTEN  =      -180.38953523 eV

  energy without entropy =     -180.38953523  energy(sigma->0) =     -180.38953523


--------------------------------------------------------------------------------------------------------




--------------------------------------- Iteration      1(  10)  ---------------------------------------


    POTLOK:  cpu time      0.4994: real time      0.5040
    SETDIJ:  cpu time      0.6895: real time      0.6949
     EDDAV:  cpu time     65.6088: real time     66.1853
       DOS:  cpu time      0.0093: real time      0.0093
    CHARGE:  cpu time      2.8385: real time      2.8623
    MIXING:  cpu time      0.0145: real time      0.0146
    --------------------------------------------
      LOOP:  cpu time     69.6599: real time     70.2704

 eigenvalue-minimisations  :  3920
 total energy-change (2. order) :-0.5541743E-02  (-0.9793339E-02)
 number of electron     552.0000011 magnetization 
 augmentation part      166.3669290 magnetization 

 Broyden mixing:
  rms(total) = 0.71011E-01    rms(broyden)= 0.71010E-01
  rms(prec ) = 0.72376E-01
  weight for this iteration     100.00

 eigenvalues of (default mixing * dielectric matrix)
  average eigenvalue GAMMA=   1.2899
  2.1378  1.4467  1.0486  1.0486  0.7678

 Free energy of the ion-electron system (eV)
  ---------------------------------------------------
  alpha Z        PSCENC =       940.95539792
  Ewald energy   TEWEN  =    115619.64207922
  -Hartree energ DENC   =   -166069.59696553
  -exchange      EXHF   =         0.00000000
  -V(xc)+E(xc)   XCENC  =      1650.79463567
  PAW double counting   =     58114.28397690   -60944.82983650
  entropy T*S    EENTRO =        -0.00000000
  eigenvalues    EBANDS =     -4690.15933158
  atomic energy  EATOM  =     55198.51496693
  Solvation  Ediel_sol  =         0.00000000
  ---------------------------------------------------
  free energy    TOTEN  =      -180.39507697 eV

  energy without entropy =     -180.39507697  energy(sigma->0) =     -180.39507697


--------------------------------------------------------------------------------------------------------




--------------------------------------- Iteration      1(  11)  ---------------------------------------


    POTLOK:  cpu time      0.4413: real time      0.4449
    SETDIJ:  cpu time      0.6105: real time      0.6148
     EDDAV:  cpu time     67.2746: real time     67.9073
       DOS:  cpu time      0.0042: real time      0.0042
    CHARGE:  cpu time      3.3183: real time      3.3482
    MIXING:  cpu time      0.0155: real time      0.0156
    --------------------------------------------
      LOOP:  cpu time     71.6645: real time     72.3350

 eigenvalue-minimisations  :  4176
 total energy-change (2. order) :-0.2606522E-02  (-0.2176599E-02)
 number of electron     552.0000011 magnetization 
 augmentation part      166.3597948 magnetization 

 Broyden mixing:
  rms(total) = 0.50798E-01    rms(broyden)= 0.50798E-01
  rms(prec ) = 0.52122E-01
  weight for this iteration     100.00

 eigenvalues of (default mixing * dielectric matrix)
  average eigenvalue GAMMA=   1.3644
  2.0100  2.0100  1.2495  1.2495  0.9771  0.6903

 Free energy of the ion-electron system (eV)
  ---------------------------------------------------
  alpha Z        PSCENC =       940.95539792
  Ewald energy   TEWEN  =    115619.64207922
  -Hartree energ DENC   =   -166068.82391226
  -exchange      EXHF   =         0.00000000
  -V(xc)+E(xc)   XCENC  =      1650.73963493
  PAW double counting   =     58045.32158574   -60875.75665200
  entropy T*S    EENTRO =        -0.00000000
  eigenvalues    EBANDS =     -4690.99078398
  atomic energy  EATOM  =     55198.51496693
  Solvation  Ediel_sol  =         0.00000000
  ---------------------------------------------------
  free energy    TOTEN  =      -180.39768349 eV

  energy without entropy =     -180.39768349  energy(sigma->0) =     -180.39768349


--------------------------------------------------------------------------------------------------------




--------------------------------------- Iteration      1(  12)  ---------------------------------------


    POTLOK:  cpu time      0.5125: real time      0.5166
    SETDIJ:  cpu time      0.6795: real time      0.6842
     EDDAV:  cpu time     65.3527: real time     65.9321
       DOS:  cpu time      0.0047: real time      0.0047
    CHARGE:  cpu time      3.3442: real time      3.3767
    MIXING:  cpu time      0.0169: real time      0.0170
    --------------------------------------------
      LOOP:  cpu time     69.9105: real time     70.5314

 eigenvalue-minimisations  :  4152
 total energy-change (2. order) :-0.1767136E-02  (-0.5417130E-03)
 number of electron     552.0000011 magnetization 
 augmentation part      166.3585006 magnetization 

 Broyden mixing:
  rms(total) = 0.21966E-01    rms(broyden)= 0.21966E-01
  rms(prec ) = 0.23432E-01
  weight for this iteration     100.00

 eigenvalues of (default mixing * dielectric matrix)
  average eigenvalue GAMMA=   1.4427
  2.4020  2.2888  1.6432  1.1205  1.1205  0.8933  0.6303

 Free energy of the ion-electron system (eV)
  ---------------------------------------------------
  alpha Z        PSCENC =       940.95539792
  Ewald energy   TEWEN  =    115619.64207922
  -Hartree energ DENC   =   -166067.28807140
  -exchange      EXHF   =         0.00000000
  -V(xc)+E(xc)   XCENC  =      1650.76533900
  PAW double counting   =     57993.55240923   -60823.97801904
  entropy T*S    EENTRO =        -0.00000000
  eigenvalues    EBANDS =     -4692.56355249
  atomic energy  EATOM  =     55198.51496693
  Solvation  Ediel_sol  =         0.00000000
  ---------------------------------------------------
  free energy    TOTEN  =      -180.39945063 eV

  energy without entropy =     -180.39945063  energy(sigma->0) =     -180.39945063


--------------------------------------------------------------------------------------------------------




--------------------------------------- Iteration      1(  13)  ---------------------------------------


    POTLOK:  cpu time      0.4869: real time      0.4912
    SETDIJ:  cpu time      0.6839: real time      0.6889
     EDDAV:  cpu time     66.4082: real time     66.9964
       DOS:  cpu time      0.0071: real time      0.0072
    CHARGE:  cpu time      3.4105: real time      3.4448
    MIXING:  cpu time      0.0171: real time      0.0173
    --------------------------------------------
      LOOP:  cpu time     71.0138: real time     71.6457

 eigenvalue-minimisations  :  4024
 total energy-change (2. order) :-0.1239709E-02  (-0.4130850E-03)
 number of electron     552.0000011 magnetization 
 augmentation part      166.3615240 magnetization 

 Broyden mixing:
  rms(total) = 0.74977E-02    rms(broyden)= 0.74975E-02
  rms(prec ) = 0.86893E-02
  weight for this iteration     100.00

 eigenvalues of (default mixing * dielectric matrix)
  average eigenvalue GAMMA=   1.4123
  2.4921  2.1442  1.8189  1.0408  1.0408  1.0633  1.0633  0.6347

 Free energy of the ion-electron system (eV)
  ---------------------------------------------------
  alpha Z        PSCENC =       940.95539792
  Ewald energy   TEWEN  =    115619.64207922
  -Hartree energ DENC   =   -166064.48174340
  -exchange      EXHF   =         0.00000000
  -V(xc)+E(xc)   XCENC  =      1650.79431156
  PAW double counting   =     58016.56916469   -60846.92535807
  entropy T*S    EENTRO =        -0.00000000
  eigenvalues    EBANDS =     -4695.46950919
  atomic energy  EATOM  =     55198.51496693
  Solvation  Ediel_sol  =         0.00000000
  ---------------------------------------------------
  free energy    TOTEN  =      -180.40069034 eV

  energy without entropy =     -180.40069034  energy(sigma->0) =     -180.40069034


--------------------------------------------------------------------------------------------------------




--------------------------------------- Iteration      1(  14)  ---------------------------------------


    POTLOK:  cpu time      0.4936: real time      0.4980
    SETDIJ:  cpu time      0.6912: real time      0.6967
     EDDAV:  cpu time     65.2257: real time     65.8359
       DOS:  cpu time      0.0134: real time      0.0134
    CHARGE:  cpu time      2.6887: real time      2.7128
    MIXING:  cpu time      0.0168: real time      0.0169
    --------------------------------------------
      LOOP:  cpu time     69.1292: real time     69.7737

 eigenvalue-minimisations  :  3880
 total energy-change (2. order) :-0.7566219E-03  (-0.2055492E-03)
 number of electron     552.0000011 magnetization 
 augmentation part      166.3620246 magnetization 

 Broyden mixing:
  rms(total) = 0.69019E-02    rms(broyden)= 0.69017E-02
  rms(prec ) = 0.76791E-02
  weight for this iteration     100.00

 eigenvalues of (default mixing * dielectric matrix)
  average eigenvalue GAMMA=   1.3926
  2.8912  2.3140  1.5681  1.4703  1.1012  1.1012  0.9468  0.6303  0.5107

 Free energy of the ion-electron system (eV)
  ---------------------------------------------------
  alpha Z        PSCENC =       940.95539792
  Ewald energy   TEWEN  =    115619.64207922
  -Hartree energ DENC   =   -166063.53022607
  -exchange      EXHF   =         0.00000000
  -V(xc)+E(xc)   XCENC  =      1650.78715455
  PAW double counting   =     58014.47073938   -60844.82322940
  entropy T*S    EENTRO =        -0.00000000
  eigenvalues    EBANDS =     -4696.41832949
  atomic energy  EATOM  =     55198.51496693
  Solvation  Ediel_sol  =         0.00000000
  ---------------------------------------------------
  free energy    TOTEN  =      -180.40144696 eV

  energy without entropy =     -180.40144696  energy(sigma->0) =     -180.40144696


--------------------------------------------------------------------------------------------------------




--------------------------------------- Iteration      1(  15)  ---------------------------------------


    POTLOK:  cpu time      0.4501: real time      0.4538
    SETDIJ:  cpu time      0.6055: real time      0.6102
     EDDAV:  cpu time     66.6514: real time     67.2608
       DOS:  cpu time      0.0051: real time      0.0052
    CHARGE:  cpu time      3.4530: real time      3.4868
    MIXING:  cpu time      0.0190: real time      0.0192
    --------------------------------------------
      LOOP:  cpu time     71.1841: real time     71.8360

 eigenvalue-minimisations  :  3984
 total energy-change (2. order) :-0.6213089E-03  (-0.2462231E-04)
 number of electron     552.0000011 magnetization 
 augmentation part      166.3614047 magnetization 

 Broyden mixing:
  rms(total) = 0.30596E-02    rms(broyden)= 0.30592E-02
  rms(prec ) = 0.39308E-02
  weight for this iteration     100.00

 eigenvalues of (default mixing * dielectric matrix)
  average eigenvalue GAMMA=   1.4453
  3.5484  2.3404  1.6753  1.6753  1.1368  1.1368  0.8656  0.7481  0.6634  0.6634

 Free energy of the ion-electron system (eV)
  ---------------------------------------------------
  alpha Z        PSCENC =       940.95539792
  Ewald energy   TEWEN  =    115619.64207922
  -Hartree energ DENC   =   -166062.62987929
  -exchange      EXHF   =         0.00000000
  -V(xc)+E(xc)   XCENC  =      1650.78347688
  PAW double counting   =     58006.33817401   -60836.69321089
  entropy T*S    EENTRO =        -0.00000000
  eigenvalues    EBANDS =     -4697.31307305
  atomic energy  EATOM  =     55198.51496693
  Solvation  Ediel_sol  =         0.00000000
  ---------------------------------------------------
[...]
  augment   361.41109   361.43218   361.55205    -0.00327    -0.00004    -0.00000
  Kinetic  6047.73594  6050.79118  6202.40497    -4.87935    -0.05046    -0.15233
  Fock        0.00000     0.00000     0.00000     0.00000     0.00000     0.00000
  vdW       -12.44189   -12.44205    -6.57001     0.00003    -0.00002    -0.00000
  -------------------------------------------------------------------------------------
  Total      -8.25651    -8.25667    -0.96196     0.00003     0.00000     0.00000
  in kB      -4.49680    -4.49688    -0.52392     0.00001     0.00000     0.00000
  external pressure =       -3.17 kB  Pullay stress =        0.00 kB


 VOLUME and BASIS-vectors are now :
 -----------------------------------------------------------------------------
  energy-cutoff  :      500.00
  volume of cell :     2941.74
      direct lattice vectors                 reciprocal lattice vectors
    11.656400000  0.000000000  0.000000000     0.085789781  0.049530553  0.000000000
    -5.828232380 10.094835290  0.000000000     0.000000000  0.099060556  0.000000000
     0.000000000  0.000000000 25.000000000     0.000000000  0.000000000  0.040000000

  length of vectors
    11.656400000 11.656499998 25.000000000     0.099061406  0.099060556  0.040000000


 FORCES acting on ions
    electron-ion (+dipol)            ewald-force                    non-local-force                 convergence-correction
 -----------------------------------------------------------------------------------------------
   0.540E-04 0.605E+01 -.150E+04   0.497E-03 -.604E+01 0.150E+04   0.162E-07 -.503E-02 -.492E-01   -.164E-08 0.933E-06 0.419E-05
   0.194E+01 0.112E+01 -.151E+04   -.192E+01 -.111E+01 0.151E+04   -.203E-01 -.117E-01 -.194E-01   -.686E-06 -.381E-06 0.344E-05
   0.524E+01 -.302E+01 -.150E+04   -.523E+01 0.302E+01 0.150E+04   -.436E-02 0.252E-02 -.492E-01   0.820E-06 -.473E-06 0.421E-05
   0.411E+01 0.238E+01 -.150E+04   -.400E+01 -.231E+01 0.150E+04   -.114E+00 -.655E-01 -.189E+00   0.696E-06 0.385E-06 0.304E-05
   -.195E+01 0.112E+01 -.151E+04   0.192E+01 -.111E+01 0.151E+04   0.203E-01 -.117E-01 -.194E-01   0.675E-06 -.389E-06 0.344E-05
   -.711E-04 -.224E+01 -.151E+04   -.405E-03 0.222E+01 0.151E+04   -.752E-07 0.235E-01 -.194E-01   -.129E-07 0.786E-06 0.344E-05
   -.411E+01 0.237E+01 -.150E+04   0.400E+01 -.231E+01 0.150E+04   0.114E+00 -.655E-01 -.189E+00   -.694E-06 0.400E-06 0.301E-05
   -.848E-03 -.475E+01 -.150E+04   -.100E-03 0.462E+01 0.150E+04   -.421E-06 0.131E+00 -.189E+00   0.137E-07 -.795E-06 0.304E-05
   -.524E+01 -.302E+01 -.150E+04   0.523E+01 0.302E+01 0.150E+04   0.436E-02 0.252E-02 -.492E-01   -.809E-06 -.465E-06 0.418E-05
   0.427E+00 0.634E+00 -.135E+04   -.449E+00 -.624E+00 0.135E+04   0.167E-01 -.133E-01 -.300E+01   -.329E-06 0.170E-06 -.925E-05
   0.770E+00 0.487E-01 -.135E+04   -.766E+00 -.749E-01 0.135E+04   -.319E-02 0.212E-01 -.300E+01   -.160E-07 -.359E-06 -.924E-05
   0.647E-02 -.513E-02 -.135E+04   0.423E-03 0.156E-02 0.135E+04   -.434E-18 0.173E-17 -.300E+01   0.111E-07 -.612E-08 -.935E-05
   -.435E+00 0.637E+00 -.135E+04   0.450E+00 -.624E+00 0.135E+04   -.167E-01 -.133E-01 -.300E+01   0.329E-06 0.160E-06 -.923E-05
   -.746E-02 0.290E-02 -.135E+04   0.150E-02 0.941E-03 0.136E+04   0.130E-17 -.173E-17 -.298E+01   -.103E-07 0.627E-08 -.926E-05
   0.342E+00 -.693E+00 -.135E+04   -.316E+00 0.703E+00 0.135E+04   -.199E-01 -.781E-02 -.300E+01   0.303E-06 0.194E-06 -.924E-05
   -.510E-03 -.107E-02 -.135E+04   -.149E-03 0.185E-02 0.135E+04   0.130E-17 0.000E+00 -.298E+01   -.676E-09 0.201E-09 -.889E-05
   -.770E+00 0.562E-01 -.135E+04   0.767E+00 -.747E-01 0.135E+04   0.319E-02 0.212E-01 -.300E+01   0.260E-07 -.365E-06 -.923E-05
   -.336E+00 -.689E+00 -.135E+04   0.318E+00 0.703E+00 0.135E+04   0.199E-01 -.781E-02 -.300E+01   -.312E-06 0.200E-06 -.925E-05
   -.106E+01 -.607E+00 -.407E+03   0.107E+01 0.615E+00 0.404E+03   -.108E-01 -.626E-02 0.311E+01   -.107E-06 -.691E-07 0.890E-05
   -.402E-03 -.888E+01 -.393E+03   -.520E-03 0.881E+01 0.390E+03   -.238E-06 0.744E-01 0.302E+01   0.167E-08 -.120E-05 0.945E-05
   -.769E+01 0.444E+01 -.393E+03   0.763E+01 -.441E+01 0.390E+03   0.644E-01 -.372E-01 0.302E+01   -.105E-05 0.603E-06 0.943E-05
   -.115E-02 0.519E+01 -.409E+03   -.131E-02 -.520E+01 0.406E+03   -.279E-07 0.870E-02 0.312E+01   -.803E-08 0.405E-06 0.888E-05
   0.449E+01 -.259E+01 -.409E+03   -.450E+01 0.260E+01 0.406E+03   0.753E-02 -.435E-02 0.312E+01   0.354E-06 -.204E-06 0.888E-05
   0.770E+01 0.444E+01 -.393E+03   -.763E+01 -.441E+01 0.390E+03   -.644E-01 -.372E-01 0.302E+01   0.104E-05 0.598E-06 0.945E-05
   0.104E+01 -.602E+00 -.407E+03   -.107E+01 0.615E+00 0.404E+03   0.108E-01 -.626E-02 0.311E+01   0.112E-06 -.651E-07 0.891E-05
   -.449E+01 -.259E+01 -.409E+03   0.450E+01 0.260E+01 0.406E+03   -.753E-02 -.435E-02 0.312E+01   -.355E-06 -.195E-06 0.888E-05
   -.335E-02 0.122E+01 -.407E+03   0.690E-04 -.124E+01 0.404E+03   -.401E-07 0.125E-01 0.311E+01   0.619E-08 0.126E-06 0.890E-05
   0.164E+02 -.743E+01 0.191E+04   -.161E+02 0.714E+01 -.191E+04   -.301E+00 0.293E+00 0.167E+01   0.250E-06 -.130E-05 -.923E-05
   0.174E+01 0.179E+02 0.191E+04   -.185E+01 -.175E+02 -.191E+04   0.104E+00 -.407E+00 0.167E+01   -.957E-06 0.874E-06 -.922E-05
   0.191E-02 0.321E-02 0.168E+04   -.301E-02 -.412E-02 -.167E+04   0.260E-17 -.520E-17 -.160E+01   -.136E-07 0.719E-08 -.144E-04
   -.164E+02 -.743E+01 0.191E+04   0.161E+02 0.713E+01 -.191E+04   0.301E+00 0.293E+00 0.167E+01   -.293E-06 -.131E-05 -.923E-05
   0.160E-02 0.294E-02 0.192E+04   -.345E-02 -.353E-02 -.192E+04   0.173E-17 0.000E+00 0.198E+01   -.323E-07 0.187E-07 -.145E-04
   -.146E+02 -.104E+02 0.191E+04   0.142E+02 0.103E+02 -.191E+04   0.405E+00 0.114E+00 0.167E+01   -.124E-05 0.391E-06 -.922E-05
   0.522E-03 0.340E-02 0.191E+04   0.496E-03 -.566E-02 -.191E+04   0.104E-16 0.000E+00 0.187E+01   0.425E-07 -.264E-07 -.112E-04
   -.174E+01 0.179E+02 0.191E+04   0.184E+01 -.175E+02 -.191E+04   -.104E+00 -.407E+00 0.167E+01   0.985E-06 0.907E-06 -.923E-05
   0.146E+02 -.104E+02 0.191E+04   -.142E+02 0.103E+02 -.191E+04   -.405E+00 0.114E+00 0.167E+01   0.125E-05 0.432E-06 -.923E-05
   -.922E+01 -.533E+01 0.268E+03   0.838E+01 0.484E+01 -.267E+03   0.833E+00 0.481E+00 -.104E+01   0.121E-05 0.673E-06 0.307E-05
   -.751E-04 -.336E+02 0.229E+03   -.579E-03 0.330E+02 -.229E+03   -.200E-05 0.623E+00 -.764E-01   0.618E-08 -.571E-05 0.207E-06
   -.291E+02 0.168E+02 0.229E+03   0.285E+02 -.165E+02 -.229E+03   0.540E+00 -.312E+00 -.764E-01   -.498E-05 0.287E-05 0.202E-06
   -.811E-03 -.471E+01 0.272E+03   0.986E-03 0.436E+01 -.271E+03   -.113E-05 0.352E+00 -.161E+01   -.322E-07 -.111E-05 0.300E-05
   -.408E+01 0.235E+01 0.272E+03   0.378E+01 -.217E+01 -.271E+03   0.305E+00 -.176E+00 -.161E+01   -.947E-06 0.549E-06 0.299E-05
   0.291E+02 0.168E+02 0.229E+03   -.285E+02 -.165E+02 -.229E+03   -.540E+00 -.312E+00 -.764E-01   0.495E-05 0.285E-05 0.208E-06
   0.922E+01 -.533E+01 0.268E+03   -.838E+01 0.484E+01 -.267E+03   -.833E+00 0.481E+00 -.104E+01   -.118E-05 0.684E-06 0.308E-05
   0.408E+01 0.235E+01 0.272E+03   -.377E+01 -.217E+01 -.271E+03   -.305E+00 -.176E+00 -.161E+01   0.945E-06 0.584E-06 0.300E-05
   -.112E-02 0.106E+02 0.268E+03   0.236E-02 -.967E+01 -.267E+03   0.308E-05 -.962E+00 -.104E+01   0.241E-07 -.139E-05 0.307E-05
   0.124E+02 0.148E+02 -.925E+02   -.124E+02 -.148E+02 0.963E+02   0.452E-01 0.696E-02 -.385E+01   -.110E-05 -.126E-05 0.414E-06
   0.190E+02 0.332E+01 -.925E+02   -.190E+02 -.336E+01 0.963E+02   0.286E-01 0.356E-01 -.385E+01   -.163E-05 -.319E-06 0.415E-06
   -.124E+02 0.148E+02 -.925E+02   0.124E+02 -.148E+02 0.963E+02   -.452E-01 0.696E-02 -.385E+01   0.108E-05 -.127E-05 0.421E-06
   -.276E-02 0.497E-02 -.959E+02   -.301E-02 -.230E-02 0.999E+02   -.694E-17 0.000E+00 -.406E+01   -.122E-07 0.709E-08 0.380E-05
   0.664E+01 -.181E+02 -.925E+02   -.662E+01 0.182E+02 0.963E+02   -.166E-01 -.426E-01 -.385E+01   -.537E-06 0.157E-05 0.415E-06
   -.131E-02 0.420E-02 -.100E+03   0.576E-03 -.444E-02 0.104E+03   -.104E-16 0.139E-16 -.398E+01   0.166E-07 -.101E-07 0.218E-05
   -.190E+02 0.332E+01 -.925E+02   0.190E+02 -.335E+01 0.963E+02   -.286E-01 0.356E-01 -.385E+01   0.164E-05 -.306E-06 0.421E-06
   -.664E+01 -.181E+02 -.925E+02   0.662E+01 0.182E+02 0.963E+02   0.166E-01 -.426E-01 -.385E+01   0.543E-06 0.158E-05 0.414E-06
   -.339E+01 -.196E+01 0.118E+04   0.347E+01 0.201E+01 -.118E+04   -.872E-01 -.503E-01 0.361E+01   0.787E-06 0.439E-06 -.446E-05
   0.483E-03 -.103E+02 0.122E+04   -.355E-03 0.111E+02 -.123E+04   0.261E-05 -.812E+00 0.489E+01   0.352E-08 0.390E-06 -.188E-05
   -.889E+01 0.513E+01 0.122E+04   0.960E+01 -.554E+01 -.123E+04   -.704E+00 0.406E+00 0.489E+01   0.320E-06 -.185E-06 -.188E-05
   -.104E-02 -.369E+01 0.119E+04   0.430E-03 0.361E+01 -.119E+04   -.234E-06 0.730E-01 0.380E+01   -.182E-07 -.185E-05 -.542E-05
   -.319E+01 0.184E+01 0.119E+04   0.312E+01 -.180E+01 -.119E+04   0.632E-01 -.365E-01 0.380E+01   -.159E-05 0.922E-06 -.541E-05
   0.889E+01 0.513E+01 0.122E+04   -.960E+01 -.554E+01 -.123E+04   0.704E+00 0.406E+00 0.489E+01   -.335E-06 -.198E-06 -.188E-05
   0.338E+01 -.196E+01 0.118E+04   -.347E+01 0.201E+01 -.118E+04   0.872E-01 -.503E-01 0.361E+01   -.770E-06 0.445E-06 -.446E-05
   0.319E+01 0.184E+01 0.119E+04   -.312E+01 -.180E+01 -.119E+04   -.632E-01 -.365E-01 0.380E+01   0.159E-05 0.941E-06 -.542E-05
   0.912E-04 0.391E+01 0.118E+04   0.902E-03 -.401E+01 -.118E+04   -.323E-06 0.101E+00 0.361E+01   0.140E-07 -.901E-06 -.446E-05
 -----------------------------------------------------------------------------------------------
   -.471E-01 0.263E-01 -.987E+01   -.639E-13 -.888E-13 0.455E-11   -.409E-15 0.278E-15 0.987E+01   -.381E-08 0.177E-08 -.727E-04
 
 
 POSITION                                       TOTAL-FORCE (eV/Angst)
 -----------------------------------------------------------------------------------
     -1.94277     10.09314     15.71505        -0.000000      0.003329      0.001933
      1.94408      3.36573     15.71179        -0.000489     -0.000282      0.000980
     -0.00150      6.73074     15.71506         0.002883     -0.001664      0.001933
      1.94164     10.09422     15.69930         0.000356      0.000205     -0.007624
      5.82683      3.36573     15.71178         0.000489     -0.000282      0.000980
      3.88544      6.72832     15.71179        -0.000000      0.000565      0.000980
     -5.82717     10.09422     15.69930        -0.000356      0.000205     -0.007624
     -1.94274      3.36617     15.69930         0.000000     -0.000411     -0.007624
     -3.88402      6.73074     15.71505        -0.002883     -0.001664      0.001933
      1.93843      1.11650     17.15662        -0.002473     -0.000948     -0.002508
     -0.00663      4.48545     17.15663        -0.002058     -0.001668     -0.002508
     -1.94277      7.85154     17.16788        -0.000000      0.000000     -0.002189
      5.83250      1.11650     17.15662         0.002473     -0.000948     -0.002508
      3.88546      4.48659     17.16483         0.000000      0.000000      0.002188
      1.94039      7.85784     17.15663         0.000415      0.002616     -0.002508
      9.71366      1.12165     17.15146         0.000000      0.000000     -0.009632
      7.77753      4.48544     17.15662         0.002058     -0.001668     -0.002508
      5.83049      7.85783     17.15662        -0.000416      0.002616     -0.002508
      0.00401      2.24561     14.27139         0.003366      0.001944     -0.002617
     -1.94275      5.62725     14.26058        -0.000000      0.003875     -0.002137
     -3.86904      8.96369     14.26058         0.003356     -0.001937     -0.002137
      3.88546      2.24208     14.28017         0.000000     -0.000386      0.001451
      1.94166      5.60885     14.28017        -0.000334      0.000193      0.001451
     -0.01649      8.96368     14.26058        -0.003356     -0.001937     -0.002137
      7.76693      2.24560     14.27138        -0.003366      0.001944     -0.002617
      5.82923      5.60885     14.28017         0.000334      0.000193      0.001451
      3.88544      8.96856     14.27139         0.000000     -0.003887     -0.002617
      1.95009      1.08111      8.60319         0.000664      0.002914      0.000076
     -0.03144      4.51324      8.60319         0.002856     -0.000882      0.000076
     -1.94276      7.85154      8.98101         0.000000      0.000000      0.017236
      5.82085      1.08112      8.60319        -0.000664      0.002914      0.000076
      3.88545      4.48659      8.59159         0.000000      0.000000      0.012671
      1.90392      7.86543      8.60319         0.002191     -0.002032      0.000076
      9.71366      1.12165      8.60957         0.000000      0.000000      0.018600
      7.80234      4.51322      8.60319        -0.002856     -0.000882      0.000076
      5.86696      7.86544      8.60319        -0.002191     -0.002032      0.000076
      0.00573      2.24661     10.67908        -0.013710     -0.007915      0.009723
     -1.94275      5.81263     10.59447         0.000000     -0.010417     -0.000871
     -3.70850      8.87100     10.59447        -0.009021      0.005208     -0.000871
      3.88546      2.23887     10.67556        -0.000000      0.004789     -0.005355
      1.93888      5.61046     10.67556         0.004147     -0.002394     -0.005355
     -0.17703      8.87099     10.59447         0.009021      0.005208     -0.000871
      7.76520      2.24660     10.67909         0.013710     -0.007915      0.009723
      5.83202      5.61045     10.67556        -0.004147     -0.002394     -0.005355
      3.88544      8.96657     10.67908        -0.000000      0.015831      0.009723
      1.96843      1.04805     11.18136        -0.002124      0.006964      0.001150
     -0.05090      4.54564     11.18135         0.004969     -0.005321      0.001150
      5.80251      1.04805     11.18136         0.002124      0.006964      0.001150
      3.88546      4.48659     11.21927        -0.000000      0.000000     -0.007926
      1.86613      7.86608     11.18135         0.007093     -0.001643      0.001150
      9.71366      1.12165     11.23416         0.000000      0.000000     -0.000399
      7.82181      4.54564     11.18136        -0.004969     -0.005321      0.001150
      5.90476      7.86608     11.18136        -0.007093     -0.001643      0.001150
      0.00673      2.24719      8.11075        -0.000736     -0.000425     -0.011535
     -1.94275      5.68417      8.01828         0.000000     -0.001112      0.015669
     -3.81974      8.93522      8.01828        -0.000963      0.000556      0.015669
      3.88546      2.23884      8.07415         0.000000     -0.005130     -0.007237
      1.93885      5.61047      8.07415        -0.004443      0.002565     -0.007237
     -0.06579      8.93522      8.01828         0.000963      0.000556      0.015669
      7.76419      2.24718      8.11074         0.000736     -0.000425     -0.011535
      5.83204      5.61047      8.07415         0.004443      0.002565     -0.007237
      3.88544      8.96540      8.11075        -0.000000      0.000850     -0.011535
 -----------------------------------------------------------------------------------
    total drift:                               -0.047148      0.026280     -0.001895


--------------------------------------------------------------------------------------------------------



  FREE ENERGIE OF THE ION-ELECTRON SYSTEM (eV)
  ---------------------------------------------------
  free  energy   TOTEN  =      -190.84152636 eV

  energy  without entropy=     -190.84152636  energy(sigma->0) =     -190.84152636
 


--------------------------------------------------------------------------------------------------------


    POTLOK:  cpu time      1.1185: real time      1.1256


--------------------------------------------------------------------------------------------------------


 writing wavefunctions
     LOOP+:  cpu time   2322.5854: real time   2342.8287
    4ORBIT:  cpu time      0.0000: real time      0.0000



 total charge

# of ion       s       p       d       tot
------------------------------------------
    1        0.325   0.227   9.618  10.170
    2        0.324   0.227   9.618  10.170
    3        0.325   0.227   9.618  10.170
    4        0.324   0.226   9.618  10.167
    5        0.324   0.227   9.618  10.170
    6        0.324   0.227   9.618  10.170
    7        0.324   0.226   9.618  10.167
    8        0.324   0.226   9.618  10.167
    9        0.325   0.227   9.618  10.170
   10        1.603   3.503   0.000   5.106
   11        1.603   3.503   0.000   5.106
   12        1.603   3.503   0.000   5.106
   13        1.603   3.503   0.000   5.106
   14        1.603   3.503   0.000   5.106
   15        1.603   3.503   0.000   5.106
   16        1.603   3.503   0.000   5.106
   17        1.603   3.503   0.000   5.106
   18        1.603   3.503   0.000   5.106
   19        1.604   3.504   0.000   5.108
   20        1.604   3.504   0.000   5.108
   21        1.604   3.504   0.000   5.108
   22        1.604   3.504   0.000   5.109
   23        1.604   3.504   0.000   5.109
   24        1.604   3.504   0.000   5.108
   25        1.604   3.504   0.000   5.108
   26        1.604   3.504   0.000   5.109
   27        1.604   3.504   0.000   5.108
   28        0.515   0.456   9.804  10.774
   29        0.515   0.456   9.804  10.774
   30        0.540   0.504   9.756  10.800
   31        0.515   0.456   9.804  10.774
   32        0.516   0.456   9.804  10.777
   33        0.515   0.456   9.804  10.774
   34        0.518   0.459   9.804  10.781
   35        0.515   0.456   9.804  10.774
   36        0.515   0.456   9.804  10.774
   37        0.506   0.432   9.802  10.741
   38        0.520   0.382   9.783  10.684
   39        0.520   0.382   9.783  10.684
   40        0.516   0.457   9.804  10.777
   41        0.516   0.457   9.804  10.777
   42        0.520   0.382   9.783  10.684
   43        0.506   0.432   9.802  10.741
   44        0.516   0.457   9.804  10.777
   45        0.506   0.432   9.802  10.741
   46        1.328   2.398   0.000   3.726
   47        1.328   2.398   0.000   3.726
   48        1.328   2.398   0.000   3.726
   49        1.326   2.409   0.000   3.735
   50        1.328   2.398   0.000   3.726
   51        1.327   2.408   0.000   3.735
   52        1.328   2.398   0.000   3.726
   53        1.328   2.398   0.000   3.726
   54        1.325   2.412   0.000   3.736
   55        1.335   2.381   0.000   3.716
   56        1.335   2.381   0.000   3.716
   57        1.325   2.410   0.000   3.735
   58        1.325   2.410   0.000   3.735
   59        1.335   2.381   0.000   3.716
   60        1.325   2.412   0.000   3.736
   61        1.325   2.410   0.000   3.735
   62        1.325   2.412   0.000   3.736
--------------------------------------------------
tot         63.645 113.882 262.920 440.447
 

 total amount of memory used by VASP MPI-rank0   263262. kBytes
=======================================================================

   base      :      30000. kBytes
   nonl-proj :      24099. kBytes
   fftplans  :      79971. kBytes
   grid      :      45515. kBytes
   one-center:         93. kBytes
   wavefun   :      83584. kBytes
 
  
  
 General timing and accounting informations for this job:
 ========================================================
  
                  Total CPU time used (sec):     2365.164
                            User time (sec):     2351.568
                          System time (sec):       13.597
                         Elapsed time (sec):     2386.215
  
                   Maximum memory used (kb):      600952.
                   Average memory used (kb):          N/A
  
                          Minor page faults:       244365
                          Major page faults:           11
                 Voluntary context switches:          903
