 running   24 mpi-ranks, with    1 threads/rank, on    1 nodes
 distrk:  each k-point on   24 cores,    1 groups
 distr:  one band on   12 cores,    2 groups
 vasp.6.4.0 14Feb23 (build Dec 31 2025 13:57:05) complex                        
  
 POSCAR found type information on POSCAR CdClZnS 
 POSCAR found :  4 types and      62 ions
 Reading from existing POTCAR
 scaLAPACK will be used
 Reading from existing POTCAR
 -----------------------------------------------------------------------------
|                                                                             |
|               ----> ADVICE to this user running VASP <----                  |
|                                                                             |
|     You have a (more or less) 'large supercell' and for larger cells it     |
|     might be more efficient to use real-space projection operators.         |
|     Therefore, try LREAL= Auto in the INCAR file.                           |
|     Mind: For very accurate calculation, you might also keep the            |
|     reciprocal projection scheme (i.e. LREAL=.FALSE.).                      |
|                                                                             |
 -----------------------------------------------------------------------------

 LDA part: xc-table for Pade appr. of Perdew
 POSCAR, INCAR and KPOINTS ok, starting setup
 FFT: planning ... GRIDC
 FFT: planning ... GRID_SOFT
 FFT: planning ... GRID
 WAVECAR not read
 WARNING: random wavefunctions but no delay for mixing, default for NELMDL
 entering main loop
       N       E                     dE             d eps       ncg     rms          rms(c)
DAV:   1     0.455238412631E+04    0.45524E+04   -0.22839E+05  6048   0.144E+03
DAV:   2     0.509658544886E+03   -0.40427E+04   -0.38559E+04  6808   0.349E+02
DAV:   3    -0.156994144411E+03   -0.66665E+03   -0.66086E+03  6856   0.140E+02
DAV:   4    -0.193037804564E+03   -0.36044E+02   -0.35772E+02  6760   0.327E+01
DAV:   5    -0.194106164704E+03   -0.10684E+01   -0.10669E+01  6912   0.554E+00    0.378E+01
DAV:   6    -0.179676619975E+03    0.14430E+02   -0.27470E+01  8432   0.386E+01    0.301E+01
DAV:   7    -0.180624895184E+03   -0.94828E+00   -0.38143E+01  6528   0.102E+01    0.115E+01
DAV:   8    -0.179752551148E+03    0.87234E+00   -0.49072E+00  7344   0.854E+00    0.316E+00
DAV:   9    -0.179743893528E+03    0.86576E-02   -0.57780E-01  7560   0.348E+00    0.916E-01
DAV:  10    -0.179747613704E+03   -0.37202E-02   -0.89331E-02  7160   0.145E+00    0.704E-01
DAV:  11    -0.179749972267E+03   -0.23586E-02   -0.18643E-02  7584   0.653E-01    0.513E-01
DAV:  12    -0.179752197134E+03   -0.22249E-02   -0.60536E-03  7464   0.666E-01    0.209E-01
DAV:  13    -0.179753227337E+03   -0.10302E-02   -0.44083E-03  7088   0.294E-01    0.958E-02
DAV:  14    -0.179753795721E+03   -0.56838E-03   -0.15025E-03  7136   0.133E-01    0.628E-02
DAV:  15    -0.179754484113E+03   -0.68839E-03   -0.45827E-04  6744   0.713E-02    0.248E-02
DAV:  16    -0.179755012016E+03   -0.52790E-03   -0.21176E-04  6992   0.586E-02    0.177E-02
DAV:  17    -0.179755197745E+03   -0.18573E-03   -0.75415E-05  7008   0.324E-02    0.180E-02
DAV:  18    -0.179755590648E+03   -0.39290E-03   -0.45710E-05  6744   0.219E-02    0.875E-03
DAV:  19    -0.179755832016E+03   -0.24137E-03   -0.42258E-05  6776   0.146E-02    0.848E-03
DAV:  20    -0.179755895601E+03   -0.63585E-04   -0.52507E-06  7056   0.900E-03    0.567E-03
DAV:  21    -0.179756025230E+03   -0.12963E-03   -0.11117E-05  6528   0.644E-03    0.401E-03
DAV:  22    -0.179756086664E+03   -0.61434E-04   -0.49141E-06  6824   0.515E-03    0.415E-03
DAV:  23    -0.179756103896E+03   -0.17233E-04   -0.62010E-07  7088   0.298E-03    0.305E-03
DAV:  24    -0.179756124498E+03   -0.20602E-04   -0.75761E-07  7024   0.288E-03    0.193E-03
DAV:  25    -0.179756131975E+03   -0.74761E-05   -0.61729E-07  6792   0.225E-03    0.199E-03
DAV:  26    -0.179756134587E+03   -0.26124E-05   -0.14499E-07  6856   0.147E-03    0.127E-03
DAV:  27    -0.179756135255E+03   -0.66816E-06   -0.60844E-08  6008   0.531E-04    0.879E-04
DAV:  28    -0.179756136485E+03   -0.12296E-05   -0.33564E-08  4816   0.561E-04    0.643E-04
DAV:  29    -0.179756137392E+03   -0.90730E-06   -0.61496E-08  4952   0.423E-04    0.607E-04
DAV:  30    -0.179756137551E+03   -0.15934E-06   -0.17316E-08  4696   0.279E-04    0.561E-04
DAV:  31    -0.179756137564E+03   -0.12325E-07   -0.64591E-09  4240   0.188E-04    0.562E-04
DAV:  32    -0.179756137535E+03    0.28878E-07   -0.26635E-09  4088   0.141E-04    0.530E-04
DAV:  33    -0.179756137499E+03    0.35383E-07   -0.12408E-09  4288   0.926E-05    0.530E-04
DAV:  34    -0.179756137497E+03    0.28231E-08    0.18779E-10  3960   0.533E-05
   1 F= -.19029386E+03 E0= -.19029386E+03  d E =-.190294E+03
 curvature:   0.00 expect dE= 0.000E+00 dE for cont linesearch  0.000E+00
 trial: gam= 0.00000 g(F)=  0.165E+00 g(S)=  0.000E+00 ort = 0.000E+00 (trialstep = 0.100E+01)
 search vector abs. value=  0.165E+00
 bond charge predicted
       N       E                     dE             d eps       ncg     rms          rms(c)
DAV:   1    -0.179891884442E+03   -0.13575E+00   -0.38864E+01  6088   0.858E+00    0.901E-01
DAV:   2    -0.179909045674E+03   -0.17161E-01   -0.19629E-01  7112   0.961E-01    0.392E-01
DAV:   3    -0.179908835092E+03    0.21058E-03   -0.12514E-02  6936   0.493E-01    0.269E-01
DAV:   4    -0.179908536348E+03    0.29874E-03   -0.15796E-03  8088   0.379E-01    0.161E-01
DAV:   5    -0.179908445731E+03    0.90617E-04   -0.10113E-03  6944   0.808E-02    0.670E-02
DAV:   6    -0.179908452157E+03   -0.64253E-05   -0.50544E-04  7272   0.670E-02    0.476E-02
DAV:   7    -0.179908455472E+03   -0.33154E-05   -0.43837E-05  7112   0.272E-02    0.436E-02
DAV:   8    -0.179908458053E+03   -0.25812E-05   -0.11389E-05  6368   0.113E-02    0.371E-02
DAV:   9    -0.179908470423E+03   -0.12370E-04   -0.12001E-05  7672   0.345E-02    0.178E-02
DAV:  10    -0.179908483716E+03   -0.13293E-04   -0.11793E-05  7832   0.157E-02    0.165E-02
DAV:  11    -0.179908487672E+03   -0.39555E-05   -0.34791E-06  7160   0.107E-02    0.127E-02
DAV:  12    -0.179908492706E+03   -0.50340E-05   -0.10940E-06  6472   0.241E-03    0.838E-03
DAV:  13    -0.179908504437E+03   -0.11731E-04   -0.18497E-06  7144   0.126E-02    0.382E-03
DAV:  14    -0.179908512272E+03   -0.78348E-05   -0.97201E-07  6672   0.264E-03    0.479E-03
DAV:  15    -0.179908514722E+03   -0.24501E-05   -0.12389E-07  7344   0.286E-03    0.229E-03
DAV:  16    -0.179908520131E+03   -0.54087E-05   -0.29547E-07  6408   0.154E-03    0.101E-03
DAV:  17    -0.179908525387E+03   -0.52566E-05   -0.26229E-07  6024   0.157E-03    0.881E-04
DAV:  18    -0.179908528020E+03   -0.26323E-05   -0.90708E-08  5656   0.807E-04    0.812E-04
DAV:  19    -0.179908529578E+03   -0.15584E-05   -0.31823E-08  4504   0.456E-04    0.728E-04
DAV:  20    -0.179908531582E+03   -0.20037E-05   -0.82152E-08  4792   0.449E-04    0.635E-04
DAV:  21    -0.179908532134E+03   -0.55218E-06   -0.20270E-08  4552   0.448E-04    0.646E-04
DAV:  22    -0.179908532267E+03   -0.13333E-06   -0.12381E-09  4272   0.217E-04    0.610E-04
DAV:  23    -0.179908532539E+03   -0.27136E-06   -0.68213E-09  4152   0.192E-04    0.639E-04
DAV:  24    -0.179908532600E+03   -0.61525E-07   -0.14755E-09  4232   0.318E-04    0.601E-04
DAV:  25    -0.179908532621E+03   -0.21333E-07   -0.12431E-11  4080   0.491E-05    0.599E-04
DAV:  26    -0.179908532631E+03   -0.98589E-08    0.33820E-10  4008   0.552E-05
   2 F= -.19044367E+03 E0= -.19044367E+03  d E =-.149818E+00
 ZBRENT: can't locate minimum, use default step
 trial-energy change:   -0.149818  1 .order   -0.149653   -0.164626   -0.134680
 step:   4.0000(harm=  5.4974)  dis= 0.14260  next Energy=  -190.746364 (dE=-0.453E+00)
 bond charge predicted
       N       E                     dE             d eps       ncg     rms          rms(c)
DAV:   1    -0.179831100877E+03    0.77432E-01   -0.38759E+02  6108   0.287E+01    0.269E+00
DAV:   2    -0.180149915257E+03   -0.31881E+00   -0.35991E+00  7664   0.581E+00    0.153E+00
DAV:   3    -0.180167148701E+03   -0.17233E-01   -0.50586E-01  7032   0.390E+00    0.986E-01
DAV:   4    -0.180165991447E+03    0.11573E-02   -0.40369E-02  7632   0.106E+00    0.637E-01
DAV:   5    -0.180165081614E+03    0.90983E-03   -0.19465E-02  7296   0.384E-01    0.285E-01
DAV:   6    -0.180165010642E+03    0.70972E-04   -0.53186E-03  7216   0.341E-01    0.154E-01
DAV:   7    -0.180165046144E+03   -0.35502E-04   -0.11092E-03  7680   0.215E-01    0.117E-01
DAV:   8    -0.180165138017E+03   -0.91873E-04   -0.71179E-04  6600   0.673E-02    0.108E-01
DAV:   9    -0.180165184929E+03   -0.46912E-04   -0.23574E-04  7536   0.151E-01    0.407E-02
DAV:  10    -0.180165269882E+03   -0.84953E-04   -0.12195E-04  8016   0.590E-02    0.322E-02
DAV:  11    -0.180165282298E+03   -0.12416E-04   -0.53022E-05  7296   0.454E-02    0.195E-02
DAV:  12    -0.180165328300E+03   -0.46002E-04   -0.12367E-05  7160   0.142E-02    0.116E-02
DAV:  13    -0.180165381628E+03   -0.53328E-04   -0.83494E-06  7304   0.142E-02    0.812E-03
DAV:  14    -0.180165408885E+03   -0.27257E-04   -0.31714E-06  6872   0.700E-03    0.784E-03
DAV:  15    -0.180165441826E+03   -0.32941E-04   -0.26442E-06  6760   0.997E-03    0.434E-03
DAV:  16    -0.180165470190E+03   -0.28364E-04   -0.25726E-06  6760   0.883E-03    0.320E-03
DAV:  17    -0.180165478966E+03   -0.87760E-05   -0.97658E-07  6352   0.353E-03    0.291E-03
DAV:  18    -0.180165489929E+03   -0.10963E-04   -0.64556E-07  6688   0.546E-03    0.936E-04
DAV:  19    -0.180165502512E+03   -0.12583E-04   -0.79845E-07  6032   0.120E-03    0.137E-03
DAV:  20    -0.180165506859E+03   -0.43469E-05   -0.17533E-07  6224   0.118E-03    0.864E-04
DAV:  21    -0.180165508622E+03   -0.17635E-05   -0.43905E-08  5376   0.117E-03    0.648E-04
DAV:  22    -0.180165511774E+03   -0.31516E-05   -0.12241E-07  5616   0.547E-04    0.840E-04
DAV:  23    -0.180165512834E+03   -0.10597E-05   -0.27945E-08  4728   0.843E-04    0.627E-04
DAV:  24    -0.180165513292E+03   -0.45806E-06   -0.98778E-09  4336   0.246E-04    0.592E-04
DAV:  25    -0.180165513686E+03   -0.39375E-06   -0.66671E-09  4176   0.439E-04    0.545E-04
DAV:  26    -0.180165513826E+03   -0.14055E-06   -0.13494E-09  4224   0.234E-04    0.569E-04
DAV:  27    -0.180165513940E+03   -0.11411E-06   -0.97772E-10  4024   0.184E-04    0.537E-04
DAV:  28    -0.180165513991E+03   -0.50568E-07   -0.10660E-09  4184   0.162E-04    0.539E-04
DAV:  29    -0.180165514002E+03   -0.11147E-07   -0.12819E-10  4120   0.742E-05    0.545E-04
DAV:  30    -0.180165514013E+03   -0.11256E-07    0.32013E-10  3976   0.819E-05    0.532E-04
DAV:  31    -0.180165514016E+03   -0.28376E-08    0.30940E-10  4024   0.738E-05
   3 F= -.19069057E+03 E0= -.19069057E+03  d E =-.396713E+00
 curvature:  -2.44 expect dE=-0.210E+00 dE for cont linesearch -0.871E-02
 ZBRENT: extrapolating
 opt :   4.6577  next Energy=  -190.698532 (dE=-0.405E+00)
 bond charge predicted
       N       E                     dE             d eps       ncg     rms          rms(c)
DAV:   1    -0.180168724651E+03   -0.32106E-02   -0.16725E+01  6040   0.569E+00    0.534E-01
DAV:   2    -0.180174730202E+03   -0.60056E-02   -0.70529E-02  7096   0.654E-01    0.213E-01
DAV:   3    -0.180175146224E+03   -0.41602E-03   -0.96622E-03  6856   0.373E-01    0.182E-01
DAV:   4    -0.180175017104E+03    0.12912E-03   -0.71233E-04  8160   0.241E-01    0.115E-01
DAV:   5    -0.180174948831E+03    0.68273E-04   -0.33546E-04  9216   0.117E-01    0.540E-02
DAV:   6    -0.180174944764E+03    0.40663E-05   -0.25578E-04  7552   0.549E-02    0.340E-02
DAV:   7    -0.180174955995E+03   -0.11231E-04   -0.15165E-04  6960   0.574E-02    0.229E-02
DAV:   8    -0.180174957420E+03   -0.14256E-05   -0.11022E-05  6432   0.111E-02    0.190E-02
DAV:   9    -0.180174960553E+03   -0.31322E-05   -0.38035E-06  6976   0.215E-02    0.128E-02
DAV:  10    -0.180174966733E+03   -0.61809E-05   -0.39759E-06  8176   0.819E-03    0.936E-03
DAV:  11    -0.180174969612E+03   -0.28790E-05   -0.11245E-06  6936   0.643E-03    0.817E-03
DAV:  12    -0.180174972477E+03   -0.28641E-05   -0.53123E-07  6856   0.263E-03    0.515E-03
DAV:  13    -0.180174976063E+03   -0.35860E-05   -0.32594E-07  7136   0.317E-03    0.148E-03
DAV:  14    -0.180174979779E+03   -0.37164E-05   -0.22960E-07  7936   0.204E-03    0.276E-03
DAV:  15    -0.180174980969E+03   -0.11901E-05   -0.62609E-08  6144   0.176E-03    0.180E-03
DAV:  16    -0.180174982729E+03   -0.17601E-05   -0.78756E-08  5992   0.128E-03    0.873E-04
DAV:  17    -0.180174985238E+03   -0.25084E-05   -0.13869E-07  5992   0.126E-03    0.835E-04
DAV:  18    -0.180174986416E+03   -0.11783E-05   -0.42586E-08  4672   0.454E-04    0.672E-04
DAV:  19    -0.180174986902E+03   -0.48643E-06   -0.96829E-09  4360   0.301E-04    0.700E-04
DAV:  20    -0.180174987514E+03   -0.61150E-06   -0.16623E-08  4312   0.221E-04    0.110E-03
DAV:  21    -0.180174987779E+03   -0.26524E-06   -0.44641E-09  4280   0.185E-04    0.899E-04
DAV:  22    -0.180174987920E+03   -0.14142E-06   -0.42909E-09  4240   0.230E-04    0.591E-04
DAV:  23    -0.180174988037E+03   -0.11645E-06   -0.30872E-09  4144   0.171E-04    0.688E-04
DAV:  24    -0.180174988108E+03   -0.70700E-07   -0.96200E-10  4144   0.991E-05    0.604E-04
DAV:  25    -0.180174988145E+03   -0.37413E-07   -0.34513E-10  4128   0.699E-05    0.574E-04
DAV:  26    -0.180174988159E+03   -0.13752E-07    0.31895E-10  4008   0.483E-05    0.576E-04
DAV:  27    -0.180174988168E+03   -0.97280E-08    0.32368E-10  4032   0.320E-05
   4 F= -.19069692E+03 E0= -.19069692E+03  d E =-.403062E+00
 curvature:  -2.24 expect dE=-0.241E+00 dE for cont linesearch -0.373E-03
 trial: gam= 0.68559 g(F)=  0.108E+00 g(S)=  0.000E+00 ort =-0.524E-02 (trialstep = 0.160E+01)
 search vector abs. value=  0.178E+00
 bond charge predicted
       N       E                     dE             d eps       ncg     rms          rms(c)
DAV:   1    -0.180197889268E+03   -0.22901E-01   -0.61754E+01  5976   0.113E+01    0.246E+00
DAV:   2    -0.180299157176E+03   -0.10127E+00   -0.11243E+00  6872   0.195E+00    0.104E+00
DAV:   3    -0.180297207832E+03    0.19493E-02   -0.44962E-02  7048   0.899E-01    0.805E-01
DAV:   4    -0.180295564262E+03    0.16436E-02   -0.70313E-03  7744   0.587E-01    0.606E-01
DAV:   5    -0.180294844344E+03    0.71992E-03   -0.62607E-03  6608   0.172E-01    0.268E-01
DAV:   6    -0.180294962534E+03   -0.11819E-03   -0.17790E-03  7712   0.190E-01    0.815E-02
DAV:   7    -0.180294961557E+03    0.97716E-06   -0.26712E-04  7968   0.985E-02    0.639E-02
DAV:   8    -0.180294949052E+03    0.12505E-04   -0.12930E-04  7776   0.506E-02    0.410E-02
DAV:   9    -0.180294953236E+03   -0.41847E-05   -0.90120E-05  6848   0.228E-02    0.201E-02
DAV:  10    -0.180294957454E+03   -0.42172E-05   -0.15483E-05  6704   0.138E-02    0.103E-02
DAV:  11    -0.180294961842E+03   -0.43888E-05   -0.18109E-06  6808   0.125E-02    0.646E-03
DAV:  12    -0.180294968944E+03   -0.71018E-05   -0.13272E-06  7536   0.687E-03    0.265E-03
DAV:  13    -0.180294971065E+03   -0.21211E-05   -0.94727E-07  6880   0.458E-03    0.172E-03
DAV:  14    -0.180294973581E+03   -0.25158E-05   -0.12425E-07  5800   0.130E-03    0.106E-03
DAV:  15    -0.180294977938E+03   -0.43564E-05   -0.27794E-07  6368   0.178E-03    0.119E-03
DAV:  16    -0.180294978917E+03   -0.97963E-06   -0.99076E-08  6224   0.126E-03    0.114E-03
DAV:  17    -0.180294979417E+03   -0.50027E-06   -0.67448E-09  4152   0.382E-04    0.101E-03
DAV:  18    -0.180294980135E+03   -0.71768E-06   -0.12996E-08  4320   0.252E-04    0.823E-04
DAV:  19    -0.180294981657E+03   -0.15216E-05   -0.86980E-08  4592   0.396E-04    0.676E-04
DAV:  20    -0.180294981828E+03   -0.17136E-06   -0.62557E-09  4440   0.224E-04    0.663E-04
DAV:  21    -0.180294981923E+03   -0.94900E-07   -0.42091E-10  4096   0.111E-04    0.650E-04
DAV:  22    -0.180294982246E+03   -0.32298E-06   -0.92320E-09  4208   0.167E-04    0.641E-04
DAV:  23    -0.180294982347E+03   -0.10089E-06   -0.24048E-09  4272   0.859E-05    0.642E-04
DAV:  24    -0.180294982367E+03   -0.20540E-07    0.20185E-10  4128   0.554E-05    0.640E-04
DAV:  25    -0.180294982400E+03   -0.32363E-07    0.12994E-10  4040   0.576E-05    0.641E-04
DAV:  26    -0.180294982420E+03   -0.19929E-07    0.31821E-10  4136   0.359E-05    0.640E-04
DAV:  27    -0.180294982424E+03   -0.40527E-08    0.52770E-10  3952   0.334E-05
   5 F= -.19081086E+03 E0= -.19081086E+03  d E =-.113939E+00
 trial-energy change:   -0.113939  1 .order   -0.113041   -0.166771   -0.059312
 step:   2.4256(harm=  2.4879)  dis= 0.05681  next Energy=  -190.826192 (dE=-0.129E+00)
 bond charge predicted
       N       E                     dE             d eps       ncg     rms          rms(c)
DAV:   1    -0.180288605297E+03    0.63771E-02   -0.16056E+01  6000   0.565E+00    0.122E+00
DAV:   2    -0.180314785700E+03   -0.26180E-01   -0.29075E-01  6848   0.976E-01    0.499E-01
DAV:   3    -0.180314169514E+03    0.61619E-03   -0.10482E-02  6800   0.409E-01    0.394E-01
DAV:   4    -0.180313750895E+03    0.41862E-03   -0.16317E-03  7832   0.279E-01    0.288E-01
DAV:   5    -0.180313545488E+03    0.20541E-03   -0.15835E-03  6736   0.963E-02    0.121E-01
DAV:   6    -0.180313587943E+03   -0.42455E-04   -0.51138E-04  7680   0.939E-02    0.409E-02
DAV:   7    -0.180313588667E+03   -0.72449E-06   -0.63182E-05  7456   0.563E-02    0.304E-02
DAV:   8    -0.180313586675E+03    0.19923E-05   -0.30983E-05  7120   0.185E-02    0.187E-02
DAV:   9    -0.180313588411E+03   -0.17364E-05   -0.18121E-05  7160   0.945E-03    0.771E-03
DAV:  10    -0.180313589458E+03   -0.10468E-05   -0.33891E-06  6344   0.626E-03    0.420E-03
DAV:  11    -0.180313591022E+03   -0.15633E-05   -0.32830E-07  6656   0.407E-03    0.250E-03
DAV:  12    -0.180313592939E+03   -0.19175E-05   -0.23525E-07  7360   0.249E-03    0.133E-03
DAV:  13    -0.180313594185E+03   -0.12457E-05   -0.20438E-07  6440   0.162E-03    0.112E-03
DAV:  14    -0.180313595271E+03   -0.10863E-05   -0.84301E-08  5824   0.102E-03    0.971E-04
DAV:  15    -0.180313596023E+03   -0.75214E-06   -0.26690E-08  4760   0.846E-04    0.730E-04
DAV:  16    -0.180313596698E+03   -0.67509E-06   -0.21651E-08  4520   0.519E-04    0.740E-04
DAV:  17    -0.180313597071E+03   -0.37316E-06   -0.10232E-08  4336   0.307E-04    0.724E-04
DAV:  18    -0.180313597530E+03   -0.45818E-06   -0.17734E-08  4280   0.260E-04    0.679E-04
DAV:  19    -0.180313597689E+03   -0.15897E-06   -0.45246E-09  4304   0.150E-04    0.665E-04
DAV:  20    -0.180313597767E+03   -0.78013E-07   -0.79302E-10  4224   0.893E-05    0.664E-04
DAV:  21    -0.180313597840E+03   -0.73669E-07   -0.11294E-09  4128   0.609E-05    0.661E-04
DAV:  22    -0.180313597886E+03   -0.46108E-07   -0.39234E-10  4136   0.792E-05    0.661E-04
DAV:  23    -0.180313597904E+03   -0.17149E-07    0.20739E-10  4088   0.465E-05    0.661E-04
DAV:  24    -0.180313597913E+03   -0.95533E-08    0.42418E-10  3976   0.245E-05
   6 F= -.19082613E+03 E0= -.19082613E+03  d E =-.129214E+00
 curvature:  -2.12 expect dE=-0.807E-01 dE for cont linesearch -0.415E-06
 trial: gam= 0.09750 g(F)=  0.381E-01 g(S)=  0.000E+00 ort =-0.187E-03 (trialstep = 0.177E+01)
 search vector abs. value=  0.398E-01
 bond charge predicted
       N       E                     dE             d eps       ncg     rms          rms(c)
DAV:   1    -0.180325662462E+03   -0.12065E-01   -0.18803E+01  5976   0.664E+00    0.164E+00
DAV:   2    -0.180354252277E+03   -0.28590E-01   -0.32800E-01  6736   0.102E+00    0.561E-01
DAV:   3    -0.180353889019E+03    0.36326E-03   -0.15719E-02  6728   0.388E-01    0.397E-01
DAV:   4    -0.180353275287E+03    0.61373E-03   -0.27204E-03  8112   0.496E-01    0.256E-01
DAV:   5    -0.180353161194E+03    0.11409E-03   -0.13263E-03  7472   0.114E-01    0.117E-01
DAV:   6    -0.180353161034E+03    0.16090E-06   -0.35486E-04  6888   0.650E-02    0.779E-02
DAV:   7    -0.180353163447E+03   -0.24132E-05   -0.23687E-04  7504   0.660E-02    0.611E-02
DAV:   8    -0.180353161652E+03    0.17953E-05   -0.32706E-05  8552   0.263E-02    0.357E-02
DAV:   9    -0.180353163146E+03   -0.14943E-05   -0.10429E-05  7952   0.161E-02    0.239E-02
DAV:  10    -0.180353166780E+03   -0.36347E-05   -0.66122E-06  7744   0.104E-02    0.127E-02
DAV:  11    -0.180353170584E+03   -0.38036E-05   -0.34769E-06  7144   0.911E-03    0.799E-03
DAV:  12    -0.180353173185E+03   -0.26007E-05   -0.60034E-07  7200   0.418E-03    0.479E-03
DAV:  13    -0.180353176207E+03   -0.30225E-05   -0.40589E-07  6152   0.245E-03    0.195E-03
DAV:  14    -0.180353177974E+03   -0.17670E-05   -0.37373E-07  6928   0.223E-03    0.264E-03
DAV:  15    -0.180353178923E+03   -0.94849E-06   -0.37508E-08  5408   0.847E-04    0.248E-03
DAV:  16    -0.180353180892E+03   -0.19688E-05   -0.86975E-08  5120   0.883E-04    0.115E-03
DAV:  17    -0.180353181826E+03   -0.93416E-06   -0.36151E-08  5072   0.763E-04    0.720E-04
DAV:  18    -0.180353182748E+03   -0.92258E-06   -0.25595E-08  4496   0.267E-04    0.688E-04
DAV:  19    -0.180353183819E+03   -0.10702E-05   -0.40790E-08  4736   0.232E-04    0.694E-04
DAV:  20    -0.180353184070E+03   -0.25186E-06   -0.32771E-09  4376   0.149E-04    0.665E-04
DAV:  21    -0.180353184254E+03   -0.18332E-06   -0.98821E-10  4248   0.135E-04    0.656E-04
DAV:  22    -0.180353184490E+03   -0.23650E-06   -0.37472E-09  4288   0.136E-04    0.646E-04
DAV:  23    -0.180353184581E+03   -0.90673E-07   -0.10119E-09  4240   0.103E-04    0.644E-04
DAV:  24    -0.180353184633E+03   -0.52030E-07   -0.13688E-10  4272   0.602E-05    0.640E-04
DAV:  25    -0.180353184671E+03   -0.38075E-07    0.19069E-11  4224   0.560E-05    0.639E-04
DAV:  26    -0.180353184698E+03   -0.26957E-07    0.20201E-10  4192   0.338E-05    0.640E-04
DAV:  27    -0.180353184705E+03   -0.70213E-08    0.50710E-10  3960   0.242E-05
   7 F= -.19086751E+03 E0= -.19086751E+03  d E =-.413810E-01
 trial-energy change:   -0.041381  1 .order   -0.041247   -0.067384   -0.015109
 step:   2.2685(harm=  2.2785)  dis= 0.02082  next Energy=  -190.869656 (dE=-0.435E-01)
 bond charge predicted
       N       E                     dE             d eps       ncg     rms          rms(c)
DAV:   1    -0.180352619499E+03    0.56520E-03   -0.15084E+00  5984   0.188E+00    0.442E-01
DAV:   2    -0.180354948643E+03   -0.23291E-02   -0.26635E-02  6728   0.284E-01    0.164E-01
DAV:   3    -0.180354918355E+03    0.30288E-04   -0.12465E-03  6720   0.102E-01    0.114E-01
DAV:   4    -0.180354867579E+03    0.50776E-04   -0.21626E-04  8168   0.145E-01    0.720E-02
DAV:   5    -0.180354859580E+03    0.79992E-05   -0.10361E-04  7680   0.330E-02    0.353E-02
DAV:   6    -0.180354860283E+03   -0.70283E-06   -0.28955E-05  6912   0.191E-02    0.225E-02
DAV:   7    -0.180354860289E+03   -0.60027E-08   -0.18005E-05  7496   0.184E-02    0.176E-02
DAV:   8    -0.180354860325E+03   -0.35638E-07   -0.26445E-06  8048   0.712E-03    0.102E-02
DAV:   9    -0.180354860611E+03   -0.28661E-06   -0.80473E-07  7680   0.483E-03    0.667E-03
DAV:  10    -0.180354861048E+03   -0.43687E-06   -0.50441E-07  7152   0.264E-03    0.373E-03
DAV:  11    -0.180354861451E+03   -0.40239E-06   -0.27727E-07  6888   0.253E-03    0.229E-03
DAV:  12    -0.180354861714E+03   -0.26368E-06   -0.41589E-08  6048   0.128E-03    0.149E-03
DAV:  13    -0.180354862035E+03   -0.32083E-06   -0.27871E-08  4392   0.732E-04    0.770E-04
DAV:  14    -0.180354862245E+03   -0.20963E-06   -0.31804E-08  5528   0.591E-04    0.887E-04
DAV:  15    -0.180354862378E+03   -0.13352E-06   -0.40567E-09  4136   0.225E-04    0.869E-04
DAV:  16    -0.180354862561E+03   -0.18269E-06   -0.66913E-09  4088   0.220E-04    0.653E-04
DAV:  17    -0.180354862648E+03   -0.87181E-07   -0.27719E-09  4280   0.161E-04    0.644E-04
DAV:  18    -0.180354862726E+03   -0.77540E-07   -0.22309E-09  4136   0.116E-04    0.639E-04
DAV:  19    -0.180354862783E+03   -0.57000E-07   -0.91039E-10  4232   0.710E-05    0.637E-04
DAV:  20    -0.180354862833E+03   -0.50270E-07   -0.15745E-09  4168   0.920E-05    0.636E-04
DAV:  21    -0.180354862847E+03   -0.14523E-07    0.11074E-10  4168   0.573E-05    0.635E-04
DAV:  22    -0.180354862863E+03   -0.15607E-07    0.32532E-10  4120   0.322E-05    0.635E-04
DAV:  23    -0.180354862874E+03   -0.10768E-07    0.26024E-10  4168   0.226E-05    0.635E-04
DAV:  24    -0.180354862877E+03   -0.32232E-08    0.55175E-10  4000   0.272E-05
   8 F= -.19086966E+03 E0= -.19086966E+03  d E =-.435328E-01
 curvature:  -1.19 expect dE=-0.626E-02 dE for cont linesearch -0.213E-07
 trial: gam= 0.13748 g(F)=  0.527E-02 g(S)=  0.000E+00 ort = 0.267E-04 (trialstep = 0.187E+01)
 search vector abs. value=  0.603E-02
 bond charge predicted
       N       E                     dE             d eps       ncg     rms          rms(c)
DAV:   1    -0.180355564561E+03   -0.70169E-03   -0.23011E+00  5976   0.231E+00    0.568E-01
DAV:   2    -0.180360934382E+03   -0.53698E-02   -0.60867E-02  7384   0.503E-01    0.253E-01
DAV:   3    -0.180360813038E+03    0.12134E-03   -0.23415E-03  6736   0.161E-01    0.188E-01
DAV:   4    -0.180360721629E+03    0.91408E-04   -0.24883E-04  8008   0.108E-01    0.134E-01
DAV:   5    -0.180360683148E+03    0.38481E-04   -0.16412E-04  7784   0.601E-02    0.840E-02
DAV:   6    -0.180360674146E+03    0.90019E-05   -0.12395E-04  8008   0.433E-02    0.345E-02
DAV:   7    -0.180360679473E+03   -0.53268E-05   -0.67000E-05  6584   0.205E-02    0.187E-02
DAV:   8    -0.180360679073E+03    0.40064E-06   -0.58376E-06  7504   0.172E-02    0.119E-02
DAV:   9    -0.180360678930E+03    0.14236E-06   -0.29196E-06  6248   0.415E-03    0.982E-03
DAV:  10    -0.180360679366E+03   -0.43548E-06   -0.94178E-07  7208   0.354E-03    0.544E-03
DAV:  11    -0.180360679754E+03   -0.38807E-06   -0.13941E-07  7144   0.218E-03    0.336E-03
DAV:  12    -0.180360680204E+03   -0.45027E-06   -0.54841E-08  6080   0.150E-03    0.194E-03
DAV:  13    -0.180360681034E+03   -0.83024E-06   -0.61211E-08  6088   0.232E-03    0.112E-03
DAV:  14    -0.180360681571E+03   -0.53639E-06   -0.81187E-08  6960   0.948E-04    0.112E-03
DAV:  15    -0.180360681885E+03   -0.31399E-06   -0.38631E-08  5600   0.102E-03    0.869E-04
DAV:  16    -0.180360681942E+03   -0.57589E-07   -0.29735E-09  4200   0.212E-04    0.833E-04
DAV:  17    -0.180360682157E+03   -0.21445E-06   -0.34321E-09  3904   0.534E-04    0.635E-04
DAV:  18    -0.180360682597E+03   -0.44006E-06   -0.26392E-08  4512   0.377E-04    0.639E-04
DAV:  19    -0.180360682626E+03   -0.29562E-07   -0.24737E-09  4336   0.357E-04    0.611E-04
DAV:  20    -0.180360682689E+03   -0.62624E-07   -0.94879E-10  3896   0.826E-05    0.612E-04
DAV:  21    -0.180360682772E+03   -0.82800E-07   -0.12010E-09  4144   0.865E-05    0.620E-04
DAV:  22    -0.180360682830E+03   -0.57924E-07   -0.84411E-10  4104   0.765E-05    0.605E-04
DAV:  23    -0.180360682842E+03   -0.12318E-07    0.84852E-11  4168   0.483E-05    0.599E-04
DAV:  24    -0.180360682849E+03   -0.66429E-08    0.45028E-10  3968   0.413E-05
   9 F= -.19087687E+03 E0= -.19087687E+03  d E =-.720962E-02
 trial-energy change:   -0.007210  1 .order   -0.007196   -0.009847   -0.004546
 step:   3.4695(harm=  3.4695)  dis= 0.00961  next Energy=  -190.878809 (dE=-0.915E-02)
 bond charge predicted
       N       E                     dE             d eps       ncg     rms          rms(c)
DAV:   1    -0.180357710715E+03    0.29721E-02   -0.16923E+00  5976   0.198E+00    0.488E-01
DAV:   2    -0.180361667573E+03   -0.39569E-02   -0.44849E-02  7360   0.432E-01    0.217E-01
DAV:   3    -0.180361579449E+03    0.88124E-04   -0.17429E-03  6736   0.139E-01    0.161E-01
DAV:   4    -0.180361512550E+03    0.66899E-04   -0.18442E-04  8000   0.929E-02    0.116E-01
DAV:   5    -0.180361484273E+03    0.28277E-04   -0.12072E-04  7784   0.518E-02    0.728E-02
DAV:   6    -0.180361477030E+03    0.72431E-05   -0.93092E-05  8064   0.377E-02    0.300E-02
DAV:   7    -0.180361480871E+03   -0.38414E-05   -0.49568E-05  6584   0.177E-02    0.162E-02
DAV:   8    -0.180361480598E+03    0.27327E-06   -0.44165E-06  7504   0.147E-02    0.102E-02
DAV:   9    -0.180361480467E+03    0.13070E-06   -0.21902E-06  6248   0.367E-03    0.844E-03
DAV:  10    -0.180361480744E+03   -0.27697E-06   -0.70215E-07  7208   0.316E-03    0.475E-03
DAV:  11    -0.180361481016E+03   -0.27142E-06   -0.10726E-07  6776   0.173E-03    0.292E-03
DAV:  12    -0.180361481337E+03   -0.32118E-06   -0.39647E-08  5568   0.129E-03    0.171E-03
DAV:  13    -0.180361481886E+03   -0.54889E-06   -0.43486E-08  5880   0.180E-03    0.952E-04
DAV:  14    -0.180361482291E+03   -0.40527E-06   -0.50816E-08  6184   0.868E-04    0.949E-04
DAV:  15    -0.180361482536E+03   -0.24468E-06   -0.37360E-08  5440   0.971E-04    0.758E-04
DAV:  16    -0.180361482553E+03   -0.17404E-07   -0.31295E-09  4176   0.252E-04    0.733E-04
DAV:  17    -0.180361482688E+03   -0.13426E-06   -0.18225E-09  3912   0.353E-04    0.617E-04
DAV:  18    -0.180361483006E+03   -0.31830E-06   -0.22667E-08  4424   0.316E-04    0.604E-04
DAV:  19    -0.180361483022E+03   -0.15752E-07   -0.12871E-09  4336   0.200E-04    0.587E-04
DAV:  20    -0.180361483035E+03   -0.13497E-07    0.10385E-11  3944   0.493E-05    0.584E-04
DAV:  21    -0.180361483067E+03   -0.31796E-07    0.58993E-11  4056   0.872E-05    0.580E-04
DAV:  22    -0.180361483113E+03   -0.45933E-07   -0.15219E-09  4040   0.638E-05    0.575E-04
DAV:  23    -0.180361483118E+03   -0.52314E-08    0.25886E-10  4168   0.632E-05
  10 F= -.19087882E+03 E0= -.19087882E+03  d E =-.916075E-02
 curvature:  -1.98 expect dE=-0.604E-02 dE for cont linesearch -0.147E-06
 trial: gam= 0.58379 g(F)=  0.305E-02 g(S)=  0.000E+00 ort =-0.211E-04 (trialstep = 0.219E+01)
 search vector abs. value=  0.508E-02
 bond charge predicted
       N       E                     dE             d eps       ncg     rms          rms(c)
DAV:   1    -0.180360459336E+03    0.10238E-02   -0.38163E+00  6000   0.293E+00    0.456E-01
DAV:   2    -0.180365046049E+03   -0.45867E-02   -0.51395E-02  6760   0.397E-01    0.226E-01
DAV:   3    -0.180365000918E+03    0.45130E-04   -0.18664E-03  6800   0.150E-01    0.170E-01
DAV:   4    -0.180364933425E+03    0.67494E-04   -0.22936E-04  7792   0.112E-01    0.122E-01
DAV:   5    -0.180364904988E+03    0.28437E-04   -0.16087E-04  6904   0.372E-02    0.674E-02
DAV:   6    -0.180364911331E+03   -0.63431E-05   -0.95598E-05  7000   0.272E-02    0.304E-02
DAV:   7    -0.180364912811E+03   -0.14806E-05   -0.28894E-05  6944   0.194E-02    0.186E-02
DAV:   8    -0.180364911560E+03    0.12515E-05   -0.73611E-06  7216   0.138E-02    0.111E-02
DAV:   9    -0.180364911383E+03    0.17702E-06   -0.30108E-06  7392   0.782E-03    0.592E-03
DAV:  10    -0.180364911745E+03   -0.36188E-06   -0.12610E-06  6128   0.338E-03    0.287E-03
DAV:  11    -0.180364912161E+03   -0.41592E-06   -0.26141E-07  7096   0.295E-03    0.112E-03
DAV:  12    -0.180364912454E+03   -0.29308E-06   -0.10559E-07  6640   0.132E-03    0.144E-03
DAV:  13    -0.180364912704E+03   -0.25061E-06   -0.21178E-08  4680   0.562E-04    0.124E-03
DAV:  14    -0.180364913112E+03   -0.40761E-06   -0.16872E-08  4248   0.761E-04    0.891E-04
DAV:  15    -0.180364913284E+03   -0.17180E-06   -0.18213E-08  4928   0.421E-04    0.767E-04
DAV:  16    -0.180364913368E+03   -0.84066E-07   -0.28066E-09  4136   0.210E-04    0.709E-04
DAV:  17    -0.180364913439E+03   -0.70810E-07   -0.15399E-09  4048   0.204E-04    0.639E-04
DAV:  18    -0.180364913576E+03   -0.13767E-06   -0.20611E-09  3992   0.132E-04    0.572E-04
DAV:  19    -0.180364913731E+03   -0.15429E-06   -0.29938E-09  4176   0.140E-04    0.580E-04
DAV:  20    -0.180364913798E+03   -0.67637E-07   -0.74862E-10  4200   0.644E-05    0.575E-04
DAV:  21    -0.180364913819E+03   -0.20438E-07    0.29373E-10  4128   0.613E-05    0.567E-04
DAV:  22    -0.180364913854E+03   -0.35667E-07    0.19306E-10  3940   0.398E-05    0.553E-04
DAV:  23    -0.180364913891E+03   -0.36358E-07    0.10973E-10  4072   0.459E-05    0.548E-04
DAV:  24    -0.180364913903E+03   -0.12005E-07    0.46153E-10  4032   0.259E-05    0.548E-04
DAV:  25    -0.180364913911E+03   -0.79599E-08    0.53296E-10  3888   0.166E-05
  11 F= -.19088371E+03 E0= -.19088371E+03  d E =-.489003E-02
 trial-energy change:   -0.004890  1 .order   -0.004871   -0.006638   -0.003104
 step:   4.0046(harm=  4.1102)  dis= 0.01293  next Energy=  -190.885014 (dE=-0.619E-02)
 bond charge predicted
       N       E                     dE             d eps       ncg     rms          rms(c)
DAV:   1    -0.180361990045E+03    0.29239E-02   -0.26294E+00  6000   0.243E+00    0.379E-01
DAV:   2    -0.180365156679E+03   -0.31666E-02   -0.35465E-02  6752   0.330E-01    0.188E-01
DAV:   3    -0.180365126060E+03    0.30619E-04   -0.12927E-03  6808   0.125E-01    0.142E-01
DAV:   4    -0.180365080011E+03    0.46049E-04   -0.15840E-04  7792   0.924E-02    0.102E-01
DAV:   5    -0.180365060421E+03    0.19590E-04   -0.11068E-04  6912   0.314E-02    0.561E-02
DAV:   6    -0.180365064940E+03   -0.45196E-05   -0.67065E-05  7024   0.229E-02    0.252E-02
DAV:   7    -0.180365065966E+03   -0.10260E-05   -0.20298E-05  6944   0.163E-02    0.154E-02
DAV:   8    -0.180365065165E+03    0.80137E-06   -0.50067E-06  7224   0.113E-02    0.932E-03
DAV:   9    -0.180365065038E+03    0.12735E-06   -0.20602E-06  7328   0.665E-03    0.502E-03
DAV:  10    -0.180365065294E+03   -0.25635E-06   -0.86837E-07  6168   0.274E-03    0.236E-03
DAV:  11    -0.180365065602E+03   -0.30769E-06   -0.18171E-07  7032   0.241E-03    0.958E-04
DAV:  12    -0.180365065817E+03   -0.21562E-06   -0.70258E-08  6400   0.110E-03    0.121E-03
DAV:  13    -0.180365066008E+03   -0.19074E-06   -0.13844E-08  4208   0.461E-04    0.107E-03
DAV:  14    -0.180365066331E+03   -0.32305E-06   -0.12936E-08  4200   0.628E-04    0.761E-04
DAV:  15    -0.180365066452E+03   -0.12040E-06   -0.12751E-08  4568   0.323E-04    0.678E-04
DAV:  16    -0.180365066519E+03   -0.67288E-07   -0.22506E-09  4064   0.214E-04    0.631E-04
DAV:  17    -0.180365066574E+03   -0.55290E-07   -0.13291E-09  4040   0.155E-04    0.587E-04
DAV:  18    -0.180365066681E+03   -0.10680E-06   -0.13122E-09  4000   0.107E-04    0.545E-04
DAV:  19    -0.180365066806E+03   -0.12490E-06   -0.22289E-09  4176   0.114E-04    0.547E-04
DAV:  20    -0.180365066855E+03   -0.49047E-07   -0.26054E-10  4176   0.562E-05    0.545E-04
DAV:  21    -0.180365066867E+03   -0.12071E-07    0.41056E-10  4072   0.485E-05    0.539E-04
DAV:  22    -0.180365066880E+03   -0.13402E-07    0.51924E-10  3888   0.306E-05    0.532E-04
DAV:  23    -0.180365066919E+03   -0.38730E-07    0.14153E-10  3944   0.363E-05    0.526E-04
DAV:  24    -0.180365066940E+03   -0.21115E-07    0.43965E-10  4016   0.237E-05    0.526E-04
DAV:  25    -0.180365066947E+03   -0.62937E-08    0.57279E-10  4032   0.185E-05
  12 F= -.19088505E+03 E0= -.19088505E+03  d E =-.622921E-02
 curvature:  -3.43 expect dE=-0.654E-02 dE for cont linesearch -0.200E-05
 trial: gam= 0.59791 g(F)=  0.191E-02 g(S)=  0.000E+00 ort = 0.544E-04 (trialstep = 0.255E+01)
 search vector abs. value=  0.379E-02
 bond charge predicted
       N       E                     dE             d eps       ncg     rms          rms(c)
DAV:   1    -0.180361949384E+03    0.31176E-02   -0.38484E+00  5976   0.293E+00    0.558E-01
DAV:   2    -0.180367009878E+03   -0.50605E-02   -0.57174E-02  6664   0.427E-01    0.234E-01
DAV:   3    -0.180366940521E+03    0.69357E-04   -0.24803E-03  6784   0.155E-01    0.180E-01
DAV:   4    -0.180366835307E+03    0.10521E-03   -0.40365E-04  8176   0.187E-01    0.119E-01
DAV:   5    -0.180366802732E+03    0.32575E-04   -0.22912E-04  6992   0.416E-02    0.608E-02
DAV:   6    -0.180366801424E+03    0.13074E-05   -0.10534E-04  7056   0.334E-02    0.261E-02
DAV:   7    -0.180366805910E+03   -0.44860E-05   -0.63174E-05  7544   0.365E-02    0.219E-02
DAV:   8    -0.180366806195E+03   -0.28458E-06   -0.87597E-06  6912   0.132E-02    0.142E-02
DAV:   9    -0.180366807782E+03   -0.15870E-05   -0.48340E-06  7540   0.972E-03    0.740E-03
DAV:  10    -0.180366810030E+03   -0.22483E-05   -0.21775E-06  6520   0.617E-03    0.275E-03
DAV:  11    -0.180366811258E+03   -0.12274E-05   -0.72160E-07  7032   0.312E-03    0.234E-03
DAV:  12    -0.180366812345E+03   -0.10874E-05   -0.18043E-07  6256   0.180E-03    0.167E-03
DAV:  13    -0.180366814904E+03   -0.25587E-05   -0.96777E-08  5728   0.229E-03    0.708E-04
DAV:  14    -0.180366816233E+03   -0.13291E-05   -0.11292E-07  5936   0.790E-04    0.661E-04
DAV:  15    -0.180366817196E+03   -0.96307E-06   -0.20687E-08  4488   0.450E-04    0.715E-04
DAV:  16    -0.180366818167E+03   -0.97076E-06   -0.20409E-08  4456   0.443E-04    0.644E-04
DAV:  17    -0.180366818993E+03   -0.82603E-06   -0.20657E-08  4520   0.232E-04    0.525E-04
DAV:  18    -0.180366819615E+03   -0.62287E-06   -0.12697E-08  4392   0.334E-04    0.509E-04
DAV:  19    -0.180366819990E+03   -0.37494E-06   -0.68509E-09  4288   0.215E-04    0.525E-04
DAV:  20    -0.180366820212E+03   -0.22207E-06   -0.33858E-09  4264   0.108E-04    0.495E-04
DAV:  21    -0.180366820310E+03   -0.97461E-07   -0.81369E-10  4256   0.125E-04    0.483E-04
DAV:  22    -0.180366820398E+03   -0.88308E-07   -0.50363E-10  4168   0.899E-05    0.483E-04
DAV:  23    -0.180366820446E+03   -0.48014E-07    0.39950E-11  4152   0.676E-05    0.480E-04
DAV:  24    -0.180366820478E+03   -0.31556E-07    0.17503E-10  4112   0.507E-05    0.480E-04
DAV:  25    -0.180366820488E+03   -0.10594E-07    0.51959E-10  4016   0.291E-05    0.480E-04
DAV:  26    -0.180366820494E+03   -0.51441E-08    0.58711E-10  3896   0.151E-05
  13 F= -.19088770E+03 E0= -.19088770E+03  d E =-.264836E-02
 trial-energy change:   -0.002648  1 .order   -0.002645   -0.004950   -0.000340
 step:   2.7393(harm=  2.7393)  dis= 0.00965  next Energy=  -190.887711 (dE=-0.266E-02)
 bond charge predicted
       N       E                     dE             d eps       ncg     rms          rms(c)
DAV:   1    -0.180366741186E+03    0.79302E-04   -0.20858E-02  6016   0.216E-01    0.416E-02
DAV:   2    -0.180366768529E+03   -0.27342E-04   -0.30927E-04  6660   0.312E-02    0.170E-02
DAV:   3    -0.180366768176E+03    0.35241E-06   -0.13264E-05  6808   0.109E-02    0.131E-02
DAV:   4    -0.180366767628E+03    0.54803E-06   -0.21403E-06  7480   0.138E-02    0.874E-03
DAV:   5    -0.180366767476E+03    0.15207E-06   -0.12022E-06  6640   0.296E-03    0.440E-03
DAV:   6    -0.180366767470E+03    0.61846E-08   -0.51851E-07  6496   0.251E-03    0.196E-03
DAV:   7    -0.180366767511E+03   -0.40687E-07   -0.33526E-07  7008   0.265E-03    0.167E-03
DAV:   8    -0.180366767526E+03   -0.15345E-07   -0.47840E-08  5168   0.982E-04    0.116E-03
DAV:   9    -0.180366767558E+03   -0.31607E-07   -0.35245E-08  5256   0.651E-04    0.693E-04
DAV:  10    -0.180366767582E+03   -0.24425E-07   -0.11954E-08  4328   0.485E-04    0.529E-04
DAV:  11    -0.180366767600E+03   -0.18015E-07   -0.25301E-09  3976   0.279E-04    0.502E-04
DAV:  12    -0.180366767622E+03   -0.22352E-07   -0.10938E-09  3976   0.162E-04    0.487E-04
DAV:  13    -0.180366767651E+03   -0.28078E-07   -0.20667E-10  3920   0.138E-04    0.480E-04
DAV:  14    -0.180366767687E+03   -0.36351E-07   -0.45081E-10  4000   0.926E-05    0.478E-04
DAV:  15    -0.180366767697E+03   -0.97789E-08    0.16079E-10  4040   0.621E-05
  14 F= -.19088771E+03 E0= -.19088771E+03  d E =-.265966E-02
 curvature:  -2.67 expect dE=-0.187E-02 dE for cont linesearch -0.492E-09
 trial: gam= 0.38473 g(F)=  0.701E-03 g(S)=  0.000E+00 ort =-0.835E-06 (trialstep = 0.259E+01)
 search vector abs. value=  0.126E-02
 bond charge predicted
       N       E                     dE             d eps       ncg     rms          rms(c)
DAV:   1    -0.180366161341E+03    0.60635E-03   -0.12896E+00  5976   0.170E+00    0.268E-01
DAV:   2    -0.180367799993E+03   -0.16387E-02   -0.18357E-02  6768   0.244E-01    0.123E-01
DAV:   3    -0.180367784556E+03    0.15437E-04   -0.77643E-04  6728   0.101E-01    0.955E-02
DAV:   4    -0.180367759926E+03    0.24630E-04   -0.10841E-04  7992   0.856E-02    0.685E-02
DAV:   5    -0.180367750891E+03    0.90355E-05   -0.69885E-05  6928   0.215E-02    0.350E-02
DAV:   6    -0.180367754037E+03   -0.31466E-05   -0.42313E-05  6928   0.146E-02    0.162E-02
DAV:   7    -0.180367754271E+03   -0.23359E-06   -0.69162E-06  7592   0.149E-02    0.135E-02
DAV:   8    -0.180367754151E+03    0.12057E-06   -0.15363E-06  7920   0.608E-03    0.915E-03
DAV:   9    -0.180367754585E+03   -0.43427E-06   -0.21117E-06  7320   0.803E-03    0.281E-03
DAV:  10    -0.180367755159E+03   -0.57452E-06   -0.12266E-06  6304   0.295E-03    0.221E-03
DAV:  11    -0.180367755276E+03   -0.11639E-06   -0.77087E-08  6216   0.145E-03    0.152E-03
DAV:  12    -0.180367755348E+03   -0.72781E-07   -0.35125E-08  4960   0.469E-04    0.129E-03
DAV:  13    -0.180367755677E+03   -0.32830E-06   -0.13457E-08  4232   0.150E-03    0.965E-04
DAV:  14    -0.180367756330E+03   -0.65293E-06   -0.46211E-08  5576   0.194E-03    0.811E-04
DAV:  15    -0.180367756449E+03   -0.11941E-06   -0.17481E-08  4640   0.839E-04    0.607E-04
DAV:  16    -0.180367756576E+03   -0.12662E-06   -0.32689E-09  4064   0.579E-04    0.532E-04
DAV:  17    -0.180367756827E+03   -0.25154E-06   -0.79773E-09  4104   0.120E-03    0.518E-04
DAV:  18    -0.180367756984E+03   -0.15670E-06   -0.10059E-08  4376   0.208E-04    0.507E-04
DAV:  19    -0.180367756996E+03   -0.11984E-07   -0.59287E-10  4136   0.214E-04    0.483E-04
DAV:  20    -0.180367757024E+03   -0.28085E-07    0.41540E-10  3864   0.850E-05    0.486E-04
DAV:  21    -0.180367757155E+03   -0.13101E-06   -0.78729E-10  4000   0.190E-04    0.465E-04
DAV:  22    -0.180367757277E+03   -0.12229E-06   -0.15795E-09  4208   0.298E-04    0.452E-04
DAV:  23    -0.180367757324E+03   -0.46908E-07   -0.38648E-10  4120   0.121E-04    0.455E-04
DAV:  24    -0.180367757333E+03   -0.84619E-08    0.27836E-10  3968   0.785E-05
  15 F= -.19088880E+03 E0= -.19088880E+03  d E =-.108313E-02
 trial-energy change:   -0.001083  1 .order   -0.001091   -0.001813   -0.000369
 step:   3.2800(harm=  3.2508)  dis= 0.00596  next Energy=  -190.888845 (dE=-0.113E-02)
 bond charge predicted
       N       E                     dE             d eps       ncg     rms          rms(c)
DAV:   1    -0.180367669531E+03    0.87793E-04   -0.91828E-02  5992   0.452E-01    0.721E-02
DAV:   2    -0.180367784605E+03   -0.11507E-03   -0.12998E-03  6768   0.648E-02    0.325E-02
DAV:   3    -0.180367783267E+03    0.13379E-05   -0.55150E-05  6720   0.267E-02    0.250E-02
DAV:   4    -0.180367781553E+03    0.17146E-05   -0.77667E-06  7424   0.229E-02    0.178E-02
DAV:   5    -0.180367780958E+03    0.59495E-06   -0.49787E-06  6680   0.577E-03    0.905E-03
DAV:   6    -0.180367781111E+03   -0.15272E-06   -0.29955E-06  6696   0.391E-03    0.432E-03
DAV:   7    -0.180367781147E+03   -0.36496E-07   -0.46350E-07  7256   0.410E-03    0.361E-03
DAV:   8    -0.180367781163E+03   -0.16189E-07   -0.11751E-07  7912   0.166E-03    0.238E-03
DAV:   9    -0.180367781233E+03   -0.69856E-07   -0.14608E-07  7064   0.221E-03    0.828E-04
DAV:  10    -0.180367781292E+03   -0.58637E-07   -0.81616E-08  5960   0.757E-04    0.670E-04
DAV:  11    -0.180367781313E+03   -0.21435E-07   -0.20750E-09  3912   0.350E-04    0.547E-04
DAV:  12    -0.180367781342E+03   -0.29060E-07   -0.12694E-09  3904   0.143E-04    0.483E-04
DAV:  13    -0.180367781402E+03   -0.59554E-07   -0.42537E-10  3984   0.211E-04    0.452E-04
DAV:  14    -0.180367781458E+03   -0.56432E-07   -0.50930E-10  4080   0.157E-04    0.456E-04
DAV:  15    -0.180367781485E+03   -0.26725E-07   -0.59429E-10  4008   0.829E-05    0.457E-04
DAV:  16    -0.180367781496E+03   -0.10747E-07    0.28548E-10  3816   0.620E-05    0.449E-04
DAV:  17    -0.180367781515E+03   -0.19223E-07    0.47903E-10  3856   0.362E-05    0.443E-04
DAV:  18    -0.180367781560E+03   -0.45031E-07    0.76269E-11  3976   0.493E-05    0.457E-04
DAV:  19    -0.180367781581E+03   -0.21086E-07    0.40392E-10  3968   0.356E-05    0.456E-04
DAV:  20    -0.180367781586E+03   -0.47003E-08    0.55263E-10  3712   0.179E-05
  16 F= -.19088884E+03 E0= -.19088884E+03  d E =-.112825E-02
 curvature:  -2.92 expect dE=-0.880E-03 dE for cont linesearch -0.845E-07
 trial: gam= 0.43063 g(F)=  0.302E-03 g(S)=  0.000E+00 ort =-0.604E-05 (trialstep = 0.273E+01)
 search vector abs. value=  0.530E-03
 bond charge predicted
       N       E                     dE             d eps       ncg     rms          rms(c)
DAV:   1    -0.180367590679E+03    0.19090E-03   -0.75210E-01  6016   0.134E+00    0.180E-01
DAV:   2    -0.180368188162E+03   -0.59748E-03   -0.68039E-03  6792   0.143E-01    0.771E-02
DAV:   3    -0.180368176465E+03    0.11698E-04   -0.22486E-04  7064   0.609E-02    0.548E-02
DAV:   4    -0.180368166851E+03    0.96135E-05   -0.48460E-05  7816   0.481E-02    0.363E-02
DAV:   5    -0.180368163313E+03    0.35384E-05   -0.24201E-05  7488   0.247E-02    0.190E-02
DAV:   6    -0.180368163092E+03    0.22120E-06   -0.14645E-05  6840   0.142E-02    0.114E-02
DAV:   7    -0.180368163700E+03   -0.60815E-06   -0.10327E-05  7136   0.127E-02    0.887E-03
DAV:   8    -0.180368163625E+03    0.74899E-07   -0.63895E-07  7288   0.428E-03    0.661E-03
DAV:   9    -0.180368163643E+03   -0.17957E-07   -0.26868E-07  7208   0.191E-03    0.532E-03
DAV:  10    -0.180368163789E+03   -0.14612E-06   -0.20930E-07  7136   0.272E-03    0.266E-03
DAV:  11    -0.180368163950E+03   -0.16089E-06   -0.61836E-08  6216   0.143E-03    0.157E-03
DAV:  12    -0.180368164109E+03   -0.15889E-06   -0.34771E-08  5312   0.848E-04    0.103E-03
DAV:  13    -0.180368164358E+03   -0.24897E-06   -0.41547E-08  5280   0.457E-04    0.616E-04
DAV:  14    -0.180368164496E+03   -0.13796E-06   -0.75317E-09  4288   0.460E-04    0.559E-04
DAV:  15    -0.180368164559E+03   -0.63061E-07   -0.21828E-09  4232   0.211E-04    0.531E-04
DAV:  16    -0.180368164631E+03   -0.72578E-07   -0.12763E-09  4128   0.174E-04    0.489E-04
DAV:  17    -0.180368164760E+03   -0.12881E-06   -0.52932E-09  4192   0.199E-04    0.448E-04
DAV:  18    -0.180368164804E+03   -0.44223E-07   -0.15618E-09  4224   0.145E-04    0.440E-04
DAV:  19    -0.180368164829E+03   -0.24404E-07   -0.21412E-10  4096   0.686E-05    0.443E-04
DAV:  20    -0.180368164848E+03   -0.19434E-07   -0.12830E-10  4072   0.597E-05    0.439E-04
DAV:  21    -0.180368164862E+03   -0.13766E-07   -0.39940E-11  4096   0.564E-05    0.437E-04
DAV:  22    -0.180368164870E+03   -0.82437E-08    0.35693E-10  4048   0.271E-05
  17 F= -.19088940E+03 E0= -.19088940E+03  d E =-.557791E-03
 trial-energy change:   -0.000558  1 .order   -0.000565   -0.000815   -0.000316
 step:   4.7765(harm=  4.4499)  dis= 0.00656  next Energy=  -190.889515 (dE=-0.673E-03)
 reached required accuracy - stopping structural energy minimisation
 writing wavefunctions
