 vasp.6.4.0 14Feb23 (build Dec 31 2025 13:57:05) complex                        
  
 executed on             LinuxIFC date 2026.06.30  23:44:11
 running   24 mpi-ranks, with    1 threads/rank, on    1 nodes
 distrk:  each k-point on   24 cores,    1 groups
 distr:  one band on NCORE=  12 cores,    2 groups


--------------------------------------------------------------------------------------------------------


 INCAR:
   ISTART = 1            (Read existing wavefunction, if there)
   ISPIN = 1            (Non-Spin polarised DFT)
   LREAL = .FALSE.       (Projection operators: automatic)
   ENCUT = 500        (Cut-off energy for plane wave basis set, in eV)
   LWAVE = .TRUE.        (Write WAVECAR or not)
   LCHARG = .TRUE.        (Write CHGCAR or not)
   ADDGRID = .TRUE.        (Increase grid, helps GGA convergence)
   LASPH = .TRUE.        (Give more accurate total energies and band structure calculations)
   PREC = Accurate      (Accurate strictly avoids any aliasing or wrap around errors)
   LVTOT = .TRUE.      (Write total electrostatic potential into LOCPOT or not)
   LVHAR = .TRUE.      (Write ionic + Hartree electrostatic potential into LOCPOT or not)
   ISMEAR = 0            (gaussian smearing method)
   SIGMA = 0.05         (please check the width of the smearing)
   LORBIT = 11           (PAW radii for projected DOS)
   NEDOS = 2001         (DOSCAR points)
   NELM = 60           (Max electronic SCF steps)
   EDIFF = 1E-08        (SCF energy convergence, in eV)
   IVDW = 11           (DFT-D3 method of method with no damping)
   NPAR = 2
   KPAR = 1

 POTCAR:    PAW_PBE Cd 06Sep2000                  
 POTCAR:    PAW_PBE Cl 06Sep2000                  
 POTCAR:    PAW_PBE Zn 06Sep2000                  
 POTCAR:    PAW_PBE S 06Sep2000                   
 POTCAR:    PAW_PBE Cd 06Sep2000                  
   SHA256 =  8b7ca71966beae5276c8bb910adb3ecc013a3354c27473914c94cd54c83be4f7 Cd/POTCAR             
   COPYR  = (c) Copyright 06Sep2000 Georg Kresse                                                    
   COPYR  = This file is part of the software VASP. Any use, copying, and all other rights are regul
   COPYR  = If you do not have a valid VASP license, you may not use, copy or distribute this file. 
   VRHFIN =Cd : s2 d10                                                                              
   LEXCH  = PE                                                                                      
   EATOM  =  1293.1815 eV,   95.0462 Ry                                                             
                                                                                                    
   TITEL  = PAW_PBE Cd 06Sep2000                                                                    
   LULTRA =        F    use ultrasoft PP ?                                                          
   IUNSCR =        1    unscreen: 0-lin 1-nonlin 2-no                                               
   RPACOR =    2.000    partial core radius                                                         
   POMASS =  112.411; ZVAL   =   12.000    mass and valenz                                          
   RCORE  =    2.300    outmost cutoff radius                                                       
   RWIGS  =    2.980; RWIGS  =    1.577    wigner-seitz radius (au A)                               
   ENMAX  =  274.336; ENMIN  =  205.752 eV                                                          
   RCLOC  =    2.054    cutoff for local pot                                                        
   LCOR   =        T    correct aug charges                                                         
   LPAW   =        T    paw PP                                                                      
   EAUG   =  456.106                                                                                
   DEXC   =    0.000                                                                                
   RMAX   =    2.358    core radius for proj-oper                                                   
   RAUG   =    1.300    factor for augmentation sphere                                              
   RDEP   =    2.450    radius for radial grids                                                     
   RDEPT  =    1.955    core radius for aug-charge                                                  
                                                                                                    
   Atomic configuration                                                                             
   12 entries                                                                                       
     n  l   j            E        occ.                                                              
     1  0  0.50    -26519.7817   2.0000                                                             
     2  0  0.50     -3936.9612   2.0000                                                             
     2  1  1.50     -3532.2230   6.0000                                                             
     3  0  0.50      -733.7908   2.0000                                                             
     3  1  1.50      -601.0792   6.0000                                                             
     3  2  2.50      -393.5307  10.0000                                                             
     4  0  0.50      -105.8977   2.0000                                                             
     4  1  1.50       -66.9488   6.0000                                                             
     4  2  2.50       -11.7331  10.0000                                                             
     5  0  0.50        -5.6592   2.0000                                                             
     5  1  0.50        -1.3606   0.0000                                                             
     4  3  2.50        -1.3606   0.0000                                                             
   Description                                                                                      
     l       E           TYP  RCUT    TYP  RCUT                                                     
     2    -11.7331479     23  2.300                                                                 
     2    -13.0937305     23  2.300                                                                 
     0     -5.6591502     23  2.300                                                                 
     0     -1.5561433     23  2.300                                                                 
     1     -2.7211652     23  2.300                                                                 
     1      8.3548275     23  2.300                                                                 
  local pseudopotential read in
  partial core-charges read in
  partial kinetic energy density read in
  atomic valenz-charges read in
  non local Contribution for L=           2  read in
    real space projection operators read in
  non local Contribution for L=           2  read in
    real space projection operators read in
  non local Contribution for L=           0  read in
    real space projection operators read in
  non local Contribution for L=           0  read in
    real space projection operators read in
  non local Contribution for L=           1  read in
    real space projection operators read in
  non local Contribution for L=           1  read in
    real space projection operators read in
    PAW grid and wavefunctions read in
 
   number of l-projection  operators is LMAX  =           6
   number of lm-projection operators is LMMAX =          18
 
 POTCAR:    PAW_PBE Cl 06Sep2000                  
   SHA256 =  9f1b6e6ed4247ac726a768b330d26d7667cc3c95a39ff49c1d064c2d9dcce931 Cl/POTCAR             
   COPYR  = (c) Copyright 06Sep2000 Georg Kresse                                                    
   COPYR  = This file is part of the software VASP. Any use, copying, and all other rights are regul
   COPYR  = If you do not have a valid VASP license, you may not use, copy or distribute this file. 
   VRHFIN =Cl: s2p5                                                                                 
   LEXCH  = PE                                                                                      
   EATOM  =   409.7259 eV,   30.1140 Ry                                                             
                                                                                                    
   TITEL  = PAW_PBE Cl 06Sep2000                                                                    
   LULTRA =        F    use ultrasoft PP ?                                                          
   IUNSCR =        1    unscreen: 0-lin 1-nonlin 2-no                                               
   RPACOR =    1.500    partial core radius                                                         
   POMASS =   35.453; ZVAL   =    7.000    mass and valenz                                          
   RCORE  =    1.900    outmost cutoff radius                                                       
   RWIGS  =    2.100; RWIGS  =    1.111    wigner-seitz radius (au A)                               
   ENMAX  =  262.472; ENMIN  =  196.854 eV                                                          
   ICORE  =        2    local potential                                                             
   LCOR   =        T    correct aug charges                                                         
   LPAW   =        T    paw PP                                                                      
   EAUG   =  356.192                                                                                
   DEXC   =    0.000                                                                                
   RMAX   =    1.945    core radius for proj-oper                                                   
   RAUG   =    1.300    factor for augmentation sphere                                              
   RDEP   =    2.020    radius for radial grids                                                     
   RDEPT  =    1.678    core radius for aug-charge                                                  
                                                                                                    
   Atomic configuration                                                                             
    6 entries                                                                                       
     n  l   j            E        occ.                                                              
     1  0  0.50     -2751.1850   2.0000                                                             
     2  0  0.50      -252.6861   2.0000                                                             
     2  1  1.50      -191.6157   6.0000                                                             
     3  0  0.50       -20.6916   2.0000                                                             
     3  1  0.50        -8.5949   5.0000                                                             
     3  2  1.50        -8.1635   0.0000                                                             
   Description                                                                                      
     l       E           TYP  RCUT    TYP  RCUT                                                     
     0    -20.6915656     23  1.900                                                                 
     0    -22.0521482     23  1.900                                                                 
     1     -8.5948577     23  1.900                                                                 
     1     -5.3847331     23  1.900                                                                 
     2     -8.1634956     23  1.900                                                                 
  local pseudopotential read in
  partial core-charges read in
  partial kinetic energy density read in
  atomic valenz-charges read in
  non local Contribution for L=           0  read in
    real space projection operators read in
  non local Contribution for L=           0  read in
    real space projection operators read in
  non local Contribution for L=           1  read in
    real space projection operators read in
  non local Contribution for L=           1  read in
    real space projection operators read in
    PAW grid and wavefunctions read in
 
   number of l-projection  operators is LMAX  =           4
   number of lm-projection operators is LMMAX =           8
 
 POTCAR:    PAW_PBE Zn 06Sep2000                  
   SHA256 =  501fddbd8274dd8e9725d4f3de27861d7f1e553a7e18441bc79fed8f346e7f23 Zn/POTCAR             
   COPYR  = (c) Copyright 06Sep2000 Georg Kresse                                                    
   COPYR  = This file is part of the software VASP. Any use, copying, and all other rights are regul
   COPYR  = If you do not have a valid VASP license, you may not use, copy or distribute this file. 
   VRHFIN =Zn: d10 p2                                                                               
   LEXCH  = PE                                                                                      
   EATOM  =  1748.8345 eV,  128.5357 Ry                                                             
                                                                                                    
   TITEL  = PAW_PBE Zn 06Sep2000                                                                    
   LULTRA =        F    use ultrasoft PP ?                                                          
   IUNSCR =        1    unscreen: 0-lin 1-nonlin 2-no                                               
   RPACOR =    2.000    partial core radius                                                         
   POMASS =   65.390; ZVAL   =   12.000    mass and valenz                                          
   RCORE  =    2.300    outmost cutoff radius                                                       
   RWIGS  =    2.400; RWIGS  =    1.270    wigner-seitz radius (au A)                               
   ENMAX  =  276.723; ENMIN  =  207.542 eV                                                          
   RCLOC  =    1.828    cutoff for local pot                                                        
   LCOR   =        T    correct aug charges                                                         
   LPAW   =        T    paw PP                                                                      
   EAUG   =  575.892                                                                                
   DEXC   =    0.000                                                                                
   RMAX   =    2.347    core radius for proj-oper                                                   
   RAUG   =    1.300    factor for augmentation sphere                                              
   RDEP   =    2.324    radius for radial grids                                                     
   RDEPT  =    1.788    core radius for aug-charge                                                  
                                                                                                    
   Atomic configuration                                                                             
    9 entries                                                                                       
     n  l   j            E        occ.                                                              
     1  0  0.50     -9524.6913   2.0000                                                             
     2  0  0.50     -1158.1882   2.0000                                                             
     2  1  1.50     -1003.8506   6.0000                                                             
     3  0  0.50      -129.2194   2.0000                                                             
     3  1  1.50       -83.3890   6.0000                                                             
     3  2  2.50       -10.1410  10.0000                                                             
     4  0  0.50        -5.9785   2.0000                                                             
     4  1  0.50        -4.0817   0.0000                                                             
     4  3  2.50        -1.3606   0.0000                                                             
   Description                                                                                      
     l       E           TYP  RCUT    TYP  RCUT                                                     
     2    -10.1410010     23  2.300                                                                 
     2    -11.5015836     23  2.300                                                                 
     0     -5.9785163     23  2.300                                                                 
     0      1.1858015     23  2.300                                                                 
     1     -2.7211652     23  2.300                                                                 
     1     13.2444212     23  2.300                                                                 
  local pseudopotential read in
  partial core-charges read in
  partial kinetic energy density read in
  atomic valenz-charges read in
  non local Contribution for L=           2  read in
    real space projection operators read in
  non local Contribution for L=           2  read in
    real space projection operators read in
  non local Contribution for L=           0  read in
    real space projection operators read in
  non local Contribution for L=           0  read in
    real space projection operators read in
  non local Contribution for L=           1  read in
    real space projection operators read in
  non local Contribution for L=           1  read in
    real space projection operators read in
    PAW grid and wavefunctions read in
 
   number of l-projection  operators is LMAX  =           6
   number of lm-projection operators is LMMAX =          18
 
 POTCAR:    PAW_PBE S 06Sep2000                   
   SHA256 =  0fc7481fb0695f01bdc6462160264c5c84044ae9ec85a907d398b887a2bc3132 S/POTCAR              
   COPYR  = (c) Copyright 06Sep2000 Georg Kresse                                                    
   COPYR  = This file is part of the software VASP. Any use, copying, and all other rights are regul
   COPYR  = If you do not have a valid VASP license, you may not use, copy or distribute this file. 
   VRHFIN =S : s2p4                                                                                 
   LEXCH  = PE                                                                                      
   EATOM  =   276.8230 eV,   20.3459 Ry                                                             
                                                                                                    
   TITEL  = PAW_PBE S 06Sep2000                                                                     
   LULTRA =        F    use ultrasoft PP ?                                                          
   IUNSCR =        1    unscreen: 0-lin 1-nonlin 2-no                                               
   RPACOR =    1.500    partial core radius                                                         
   POMASS =   32.066; ZVAL   =    6.000    mass and valenz                                          
   RCORE  =    1.900    outmost cutoff radius                                                       
   RWIGS  =    2.200; RWIGS  =    1.164    wigner-seitz radius (au A)                               
   ENMAX  =  258.689; ENMIN  =  194.016 eV                                                          
   ICORE  =        2    local potential                                                             
   LCOR   =        T    correct aug charges                                                         
   LPAW   =        T    paw PP                                                                      
   EAUG   =  335.092                                                                                
   DEXC   =    0.000                                                                                
   RMAX   =    1.942    core radius for proj-oper                                                   
   RAUG   =    1.300    factor for augmentation sphere                                              
   RDEP   =    1.954    radius for radial grids                                                     
   RDEPT  =    1.744    core radius for aug-charge                                                  
                                                                                                    
   Atomic configuration                                                                             
    6 entries                                                                                       
     n  l   j            E        occ.                                                              
     1  0  0.50     -2405.8406   2.0000                                                             
     2  0  0.50      -211.7007   2.0000                                                             
     2  1  1.50      -156.4958   6.0000                                                             
     3  0  0.50       -17.2562   2.0000                                                             
     3  1  0.50        -7.0085   4.0000                                                             
     3  2  1.50        -6.8029   0.0000                                                             
   Description                                                                                      
     l       E           TYP  RCUT    TYP  RCUT                                                     
     0    -17.2561641     23  1.900                                                                 
     0    -15.8743224     23  1.900                                                                 
     1     -7.0085400     23  1.900                                                                 
     1     -2.7779785     23  1.900                                                                 
     2     -6.8029130     23  1.900                                                                 
  local pseudopotential read in
  partial core-charges read in
  partial kinetic energy density read in
  atomic valenz-charges read in
  non local Contribution for L=           0  read in
    real space projection operators read in
  non local Contribution for L=           0  read in
    real space projection operators read in
  non local Contribution for L=           1  read in
    real space projection operators read in
  non local Contribution for L=           1  read in
    real space projection operators read in
    PAW grid and wavefunctions read in
 
   number of l-projection  operators is LMAX  =           4
   number of lm-projection operators is LMMAX =           8
 
 -----------------------------------------------------------------------------
|                                                                             |
|               ----> ADVICE to this user running VASP <----                  |
|                                                                             |
|     You have a (more or less) 'large supercell' and for larger cells it     |
|     might be more efficient to use real-space projection operators.         |
|     Therefore, try LREAL= Auto in the INCAR file.                           |
|     Mind: For very accurate calculation, you might also keep the            |
|     reciprocal projection scheme (i.e. LREAL=.FALSE.).                      |
|                                                                             |
 -----------------------------------------------------------------------------

  PAW_PBE Cd 06Sep2000                  :
 energy of atom  1       EATOM=-1293.1815
 kinetic energy error for atom=    0.0063 (will be added to EATOM!!)
  PAW_PBE Cl 06Sep2000                  :
 energy of atom  2       EATOM= -409.7259
 kinetic energy error for atom=    0.0030 (will be added to EATOM!!)
  PAW_PBE Zn 06Sep2000                  :
 energy of atom  3       EATOM=-1748.8345
 kinetic energy error for atom=    0.0029 (will be added to EATOM!!)
  PAW_PBE S 06Sep2000                   :
 energy of atom  4       EATOM= -276.8230
 kinetic energy error for atom=    0.0020 (will be added to EATOM!!)
 
 
 POSCAR: cif2pos.py
  positions in direct lattice
  velocities in cartesian coordinates
 exchange correlation table for  LEXCH =        8
   RHO(1)=    0.500       N(1)  =     2000
   RHO(2)=  100.500       N(2)  =     4000
 


--------------------------------------------------------------------------------------------------------


 ion  position               nearest neighbor table
   1  0.334  0.000  0.628-  24 2.65  21 2.67  12 2.67  22 2.67  10 2.68  13 2.68
   2  0.334  0.334  0.630-  10 2.66  14 2.66  23 2.66  11 2.67  19 2.67  22 2.68
   3  0.334  0.667  0.628-  24 2.66  20 2.67  12 2.67  15 2.67  11 2.67  23 2.68
   4  0.667  0.001  0.630-  24 2.65  25 2.66  27 2.67  13 2.67  15 2.68  16 2.68
   5  0.667  0.333  0.629-  13 2.67  22 2.67  17 2.67  26 2.67  25 2.67  14 2.68
   6  0.667  0.667  0.628-  26 2.66  15 2.66  18 2.67  27 2.67  23 2.67  14 2.68
   7  0.999  0.000  0.629-  21 2.63  16 2.66  27 2.66  18 2.67  10 2.68  19 2.70
   8  0.000  0.334  0.630-  20 2.65  25 2.66  16 2.67  17 2.67  11 2.67  19 2.68
   9  1.000  0.667  0.627-  21 2.66  12 2.67  20 2.67  26 2.67  17 2.68  18 2.68
  10  0.223  0.111  0.687-   2 2.66   7 2.68   1 2.68
  11  0.223  0.446  0.687-   2 2.67   8 2.67   3 2.67
  12  0.221  0.777  0.686-   9 2.67   1 2.67   3 2.67
  13  0.555  0.112  0.687-   5 2.67   4 2.67   1 2.68
  14  0.557  0.445  0.687-   2 2.66   5 2.68   6 2.68
  15  0.555  0.776  0.687-   6 2.66   3 2.67   4 2.68
  16  0.890  0.112  0.687-   7 2.66   8 2.67   4 2.68
  17  0.889  0.447  0.687-   5 2.67   8 2.67   9 2.68
  18  0.888  0.776  0.686-   6 2.67   7 2.67   9 2.68
  19  0.114  0.225  0.571-   2 2.67   8 2.68   7 2.70
  20  0.111  0.552  0.571-   8 2.65   3 2.67   9 2.67
  21  0.110  0.892  0.572-   7 2.63   9 2.66   1 2.67
  22  0.446  0.224  0.571-   5 2.67   1 2.67   2 2.68
  23  0.444  0.553  0.571-   2 2.66   6 2.67   3 2.68
  24  0.447  0.890  0.572-   4 2.65   1 2.65   3 2.66
  25  0.779  0.222  0.572-   8 2.66   4 2.66   5 2.67
  26  0.775  0.554  0.571-   6 2.66   5 2.67   9 2.67
  27  0.778  0.890  0.571-   7 2.66   4 2.67   6 2.67
  28  0.236  0.130  0.343-  56 2.31  53 2.33  55 2.42  46 2.44
  29  0.216  0.428  0.326-  53 2.23  57 2.29  54 2.32  41 2.97
  30  0.224  0.783  0.328-  58 2.24  55 2.26  54 2.32
  31  0.558  0.115  0.344-  56 2.30  59 2.34  58 2.36  48 2.51
  32  0.563  0.434  0.345-  56 2.30  60 2.32  57 2.35  40 2.68  44 2.69
  33  0.553  0.770  0.349-  61 2.31  57 2.32  58 2.33  49 2.47  45 3.02
  34  0.909  0.115  0.344-  53 2.30  61 2.36  59 2.36  50 2.46  43 3.01
  35  0.874  0.438  0.342-  60 2.28  59 2.30  54 2.42  51 2.60
  36  0.878  0.759  0.347-  60 2.29  61 2.35  55 2.38  52 2.47
  37  0.166  0.286  0.443-  46 2.37  50 2.51  41 2.58
  38  0.091  0.586  0.426-  47 2.24  51 2.27  54 2.39
  39  0.116  0.895  0.429-  47 2.33  55 2.46  46 2.48  52 2.50
  40  0.491  0.272  0.430-  48 2.39  46 2.44  32 2.68  44 2.71
  41  0.361  0.522  0.429-  49 2.51  57 2.55  37 2.58  29 2.97
  42  0.437  0.885  0.429-  47 2.32  49 2.35  48 2.36  58 2.59
  43  0.789  0.215  0.426-  50 2.31  48 2.33  51 2.34  59 2.58  34 3.01
  44  0.717  0.510  0.433-  51 2.40  52 2.51  32 2.69  40 2.71
  45  0.777  0.883  0.429-  52 2.32  50 2.47  49 2.48  61 2.51  33 3.02
  46  0.251  0.139  0.440-  37 2.37  28 2.44  40 2.44  39 2.48
  47  0.222  0.787  0.462-  38 2.24  42 2.32  39 2.33
  48  0.563  0.115  0.444-  43 2.33  42 2.36  40 2.39  31 2.51
  49  0.536  0.757  0.448-  42 2.35  33 2.47  45 2.48  41 2.51
  50  0.921  0.123  0.443-  43 2.31  34 2.46  45 2.47  37 2.51
  51  0.877  0.440  0.446-  38 2.27  43 2.34  44 2.40  35 2.60
  52  0.873  0.753  0.446-  45 2.32  36 2.47  39 2.50  44 2.51
  53  0.113  0.214  0.304-  29 2.23  34 2.30  28 2.33
  54  0.113  0.554  0.333-  29 2.32  30 2.32  38 2.39  35 2.42
  55  0.109  0.892  0.331-  30 2.26  36 2.38  28 2.42  39 2.46
  56  0.451  0.222  0.312-  31 2.30  32 2.30  28 2.31
  57  0.442  0.543  0.332-  29 2.29  33 2.32  32 2.35  41 2.55
  58  0.447  0.886  0.326-  30 2.24  33 2.33  31 2.36  42 2.59
  59  0.783  0.216  0.323-  35 2.30  31 2.34  34 2.36  43 2.58
  60  0.775  0.551  0.310-  35 2.28  36 2.29  32 2.32
  61  0.777  0.885  0.329-  33 2.31  36 2.35  34 2.36  45 2.51
 
  LATTYP: Found a hexagonal cell.
 ALAT       =    11.6564000000
 C/A-ratio  =     2.1447445180
  
  Lattice vectors:
  
 A1 = (  11.6564000000,   0.0000000000,   0.0000000000)
 A2 = (  -5.8282323800,  10.0948352900,   0.0000000000)
 A3 = (   0.0000000000,   0.0000000000,  25.0000000000)


Analysis of symmetry for initial positions (statically):
=====================================================================
 Subroutine PRICEL returns:
 Original cell was already a primitive cell.
 

 Routine SETGRP: Setting up the symmetry group for a 
 hexagonal supercell.


 Subroutine GETGRP returns: Found  1 space group operations
 (whereof  1 operations were pure point group operations)
 out of a pool of 24 trial point group operations.


The static configuration has the point symmetry C_1 .


Analysis of symmetry for dynamics (positions and initial velocities):
=====================================================================
 Subroutine PRICEL returns:
 Original cell was already a primitive cell.
 

 Routine SETGRP: Setting up the symmetry group for a 
 hexagonal supercell.


 Subroutine GETGRP returns: Found  1 space group operations
 (whereof  1 operations were pure point group operations)
 out of a pool of 24 trial point group operations.


The dynamic configuration has the point symmetry C_1 .


 Subroutine INISYM returns: Found  1 space group operations
 (whereof  1 operations are pure point group operations),
 and found     1 'primitive' translations


----------------------------------------------------------------------------------------

                                     Primitive cell                                     

  volume of cell :    2941.7360

  direct lattice vectors                    reciprocal lattice vectors
    11.656400000  0.000000000  0.000000000     0.085789781  0.049530553  0.000000000
    -5.828232380 10.094835290  0.000000000     0.000000000  0.099060556  0.000000000
     0.000000000  0.000000000 25.000000000     0.000000000  0.000000000  0.040000000

  length of vectors
    11.656400000 11.656499998 25.000000000     0.099061406  0.099060556  0.040000000

  position of ions in fractional coordinates (direct lattice)
     0.333584994  0.000494035  0.628223449
     0.334379851  0.333807836  0.630200314
     0.333546343  0.666703325  0.628393994
     0.667100779  0.000574578  0.629679586
     0.666866433  0.332910497  0.629080137
     0.666665121  0.666984905  0.628419711
     0.999400732  0.000210640  0.629413543
     0.000054081  0.333655782  0.629625249
     0.999878979  0.666960010  0.626987107
     0.222855216  0.111355365  0.687006603
     0.222867683  0.445541627  0.687328772
     0.220901684  0.777436641  0.685707318
     0.555072248  0.111752903  0.687295587
     0.556571624  0.445278762  0.687188539
     0.555239026  0.776428545  0.686795504
     0.890379127  0.111603130  0.687449093
     0.889321824  0.446587747  0.686507854
     0.888193598  0.776089760  0.686419154
     0.113826037  0.225018292  0.571187179
     0.110961740  0.552456614  0.571028580
     0.109571639  0.892154788  0.571630296
     0.445627467  0.224063152  0.570907369
     0.443553119  0.552903276  0.570768085
     0.446797145  0.890423221  0.572355557
     0.778808909  0.221855521  0.571879196
     0.774987889  0.553729182  0.570568864
     0.778028602  0.890291769  0.571402853
     0.236385995  0.129550125  0.342891318
     0.215865647  0.428329499  0.325706190
     0.224480784  0.783341905  0.327776976
     0.557680016  0.115233920  0.343908565
     0.563222885  0.434362341  0.345311438
     0.553354707  0.769554707  0.349432611
     0.908950792  0.115195321  0.344462126
     0.874236756  0.437736808  0.341809851
     0.878061311  0.759248829  0.346883607
     0.165506922  0.285822192  0.442920185
     0.091185017  0.585790471  0.426365518
     0.115605812  0.895280855  0.428854018
     0.490805814  0.271595925  0.430094909
     0.361342386  0.522318079  0.428677074
     0.436803137  0.884879491  0.429175862
     0.788861829  0.214937873  0.425948965
     0.717349900  0.509716950  0.432850346
     0.777109825  0.882828564  0.429349225
     0.250516908  0.138549796  0.440141888
     0.222399161  0.786550881  0.461959361
     0.563211367  0.114982890  0.444472141
     0.536295833  0.756784063  0.448062674
     0.921284367  0.123344644  0.442595590
     0.876644724  0.439531789  0.445989412
     0.872966859  0.752784063  0.445511154
     0.113209299  0.214479647  0.303906498
     0.112639703  0.553837373  0.333322798
     0.109315592  0.891555361  0.330654219
     0.451363166  0.221951230  0.311780578
     0.441870674  0.543296775  0.332460544
     0.446540793  0.886305020  0.325823225
     0.782817639  0.216386270  0.322657056
     0.775372974  0.551035969  0.310336718
     0.776619516  0.885338472  0.328757868

  ion indices of the primitive-cell ions
   primitive index   ion index
                 1           1
                 2           2
                 3           3
                 4           4
                 5           5
                 6           6
                 7           7
                 8           8
                 9           9
                10          10
                11          11
                12          12
                13          13
                14          14
                15          15
                16          16
                17          17
                18          18
                19          19
                20          20
                21          21
                22          22
                23          23
                24          24
                25          25
                26          26
                27          27
                28          28
                29          29
                30          30
                31          31
                32          32
                33          33
                34          34
                35          35
                36          36
                37          37
                38          38
                39          39
                40          40
                41          41
                42          42
                43          43
                44          44
                45          45
                46          46
                47          47
                48          48
                49          49
                50          50
                51          51
                52          52
                53          53
                54          54
                55          55
                56          56
                57          57
                58          58
                59          59
                60          60
                61          61

----------------------------------------------------------------------------------------

 
 
 KPOINTS: K-Spacing Value to Generate K-Mesh: 0.02

Automatic generation of k-mesh.
 Grid dimensions read from file:
 generate k-points for:    5    5    1

 Generating k-lattice:

  Cartesian coordinates                     Fractional coordinates (reciprocal lattice)
     0.017157956  0.009906111  0.000000000     0.200000000  0.000000000  0.000000000
     0.000000000  0.019812111  0.000000000     0.000000000  0.200000000  0.000000000
     0.000000000  0.000000000  0.040000000     0.000000000  0.000000000  1.000000000

  Length of vectors
     0.019812281  0.019812111  0.040000000

  Shift w.r.t. Gamma in fractional coordinates (k-lattice)
     0.000000000  0.000000000  0.000000000

 
 Subroutine IBZKPT returns following result:
 ===========================================
 
 Found     13 irreducible k-points:
 
 Following reciprocal coordinates:
            Coordinates               Weight
  0.000000  0.000000  0.000000      1.000000
  0.200000  0.000000  0.000000      2.000000
  0.000000  0.200000  0.000000      2.000000
 -0.200000  0.200000  0.000000      2.000000
  0.400000  0.000000  0.000000      2.000000
  0.000000  0.400000  0.000000      2.000000
 -0.400000  0.400000  0.000000      2.000000
  0.200000  0.200000  0.000000      2.000000
 -0.200000  0.400000  0.000000      2.000000
 -0.400000  0.200000  0.000000      2.000000
  0.400000  0.200000  0.000000      2.000000
 -0.200000 -0.400000  0.000000      2.000000
  0.400000  0.400000  0.000000      2.000000
 
 Following cartesian coordinates:
            Coordinates               Weight
  0.000000  0.000000  0.000000      1.000000
  0.017158  0.009906  0.000000      2.000000
  0.000000  0.019812  0.000000      2.000000
 -0.017158  0.009906  0.000000      2.000000
  0.034316  0.019812  0.000000      2.000000
  0.000000  0.039624  0.000000      2.000000
 -0.034316  0.019812  0.000000      2.000000
  0.017158  0.029718  0.000000      2.000000
 -0.017158  0.029718  0.000000      2.000000
 -0.034316 -0.000000  0.000000      2.000000
  0.034316  0.039624  0.000000      2.000000
 -0.017158 -0.049530  0.000000      2.000000
  0.034316  0.059436  0.000000      2.000000
 


--------------------------------------------------------------------------------------------------------




 Dimension of arrays:
   k-points           NKPTS =     13   k-points in BZ     NKDIM =     13   number of bands    NBANDS=    328
   number of dos      NEDOS =   2001   number of ions     NIONS =     61
   non local maximal  LDIM  =      6   non local SUM 2l+1 LMDIM =     18
   total plane-waves  NPLWV = ******
   max r-space proj   IRMAX =      1   max aug-charges    IRDMAX= 179030
   dimension x,y,z NGX =    90 NGY =   90 NGZ =  192
   dimension x,y,z NGXF=   180 NGYF=  180 NGZF=  384
   support grid    NGXF=   360 NGYF=  360 NGZF=  768
   ions per type =               9  18  18  16
   NGX,Y,Z   is equivalent  to a cutoff of  12.84, 12.84, 12.77 a.u.
   NGXF,Y,Z  is equivalent  to a cutoff of  25.67, 25.67, 25.54 a.u.

 SYSTEM =  unknown system                          
 POSCAR =  cif2pos.py                              

 Startparameter for this run:
   NWRITE =      2    write-flag & timer
   PREC   = accura    normal or accurate (medium, high low for compatibility)
   ISTART =      0    job   : 0-new  1-cont  2-samecut
   ICHARG =      2    charge: 1-file 2-atom 10-const
   ISPIN  =      1    spin polarized calculation?
   LNONCOLLINEAR =      F non collinear calculations
   LSORBIT =      F    spin-orbit coupling
   INIWAV =      1    electr: 0-lowe 1-rand  2-diag
   LASPH  =      T    aspherical Exc in radial PAW
 Electronic Relaxation 1
   ENCUT  =  500.0 eV  36.75 Ry    6.06 a.u.  21.25 21.25 45.58*2*pi/ulx,y,z
   ENINI  =  500.0     initial cutoff
   ENAUG  =  575.9 eV  augmentation charge cutoff
   NELM   =     60;   NELMIN=  2; NELMDL=  0     # of ELM steps 
   EDIFF  = 0.1E-07   stopping-criterion for ELM
   LREAL  =      F    real-space projection
   NLSPLINE    = F    spline interpolate recip. space projectors
   LCOMPAT=      F    compatible to vasp.4.4
   GGA_COMPAT  = T    GGA compatible to vasp.4.4-vasp.4.6
   LMAXPAW     = -100 max onsite density
   LMAXMIX     =    2 max onsite mixed and CHGCAR
   VOSKOWN=      0    Vosko Wilk Nusair interpolation
   ROPT   =    0.00000   0.00000   0.00000   0.00000
 Ionic relaxation
   EDIFFG = 0.1E-06   stopping-criterion for IOM
   NSW    =      0    number of steps for IOM
   NBLOCK =      1;   KBLOCK =      1    inner block; outer block 
   IBRION =     -1    ionic relax: 0-MD 1-quasi-New 2-CG
   NFREE  =      0    steps in history (QN), initial steepest desc. (CG)
   ISIF   =      2    stress and relaxation
   IWAVPR =     10    prediction:  0-non 1-charg 2-wave 3-comb
   ISYM   =      2    0-nonsym 1-usesym 2-fastsym
   LCORR  =      T    Harris-Foulkes like correction to forces

   POTIM  = 0.5000    time-step for ionic-motion
   TEIN   =    0.0    initial temperature
   TEBEG  =    0.0;   TEEND  =   0.0 temperature during run
   SMASS  =  -3.00    Nose mass-parameter (am)
   estimated Nose-frequenzy (Omega)   =  0.10E-29 period in steps = 0.13E+47 mass=  -0.311E-26a.u.
   SCALEE = 1.0000    scale energy and forces
   NPACO  =    256;   APACO  = 10.0  distance and # of slots for P.C.
   PSTRESS=    0.0 pullay stress

  Mass of Ions in am
   POMASS = 112.41 35.45 65.39 32.07
  Ionic Valenz
   ZVAL   =  12.00  7.00 12.00  6.00
  Atomic Wigner-Seitz radii
   RWIGS  =  -1.00 -1.00 -1.00 -1.00
  virtual crystal weights 
   VCA    =   1.00  1.00  1.00  1.00
   NELECT =     546.0000    total number of electrons
   NUPDOWN=      -1.0000    fix difference up-down

 DOS related values:
   EMIN   =  10.00;   EMAX   =-10.00  energy-range for DOS
   EFERMI =   0.00;   METHOD = LEGACY      
   ISMEAR =     0;   SIGMA  =   0.05  broadening in eV -4-tet -1-fermi 0-gaus

 Electronic relaxation 2 (details)
   IALGO  =     38    algorithm
   LDIAG  =      T    sub-space diagonalisation (order eigenvalues)
   LSUBROT=      F    optimize rotation matrix (better conditioning)
   TURBO    =      0    0=normal 1=particle mesh
   IRESTART =      0    0=no restart 2=restart with 2 vectors
   NREBOOT  =      0    no. of reboots
   NMIN     =      0    reboot dimension
   EREF     =   0.00    reference energy to select bands
   IMIX   =      4    mixing-type and parameters
     AMIX     =   0.40;   BMIX     =  1.00
     AMIX_MAG =   1.60;   BMIX_MAG =  1.00
     AMIN     =   0.10
     WC   =   100.;   INIMIX=   1;  MIXPRE=   1;  MAXMIX= -45

 Intra band minimization:
   WEIMIN = 0.0000     energy-eigenvalue tresh-hold
   EBREAK =  0.76E-11  absolut break condition
   DEPER  =   0.30     relativ break condition  

   TIME   =   0.40     timestep for ELM

  volume/ion in A,a.u.               =      48.23       325.44
  Fermi-wavevector in a.u.,A,eV,Ry     =   0.933837  1.764696 11.864985  0.872052
  Thomas-Fermi vector in A             =   2.060580
 
 Write flags
   LWAVE        =      T    write WAVECAR
   LDOWNSAMPLE  =      F    k-point downsampling of WAVECAR
   LCHARG       =      T    write CHGCAR
   LVTOT        =      F    write LOCPOT, total local potential
   LVHAR        =      T    write LOCPOT, Hartree potential only
   LELF         =      F    write electronic localiz. function (ELF)
   LORBIT       =     11    0 simple, 1 ext, 2 COOP (PROOUT), +10 PAW based schemes


 Dipole corrections
   LMONO  =      F    monopole corrections only (constant potential shift)
   LDIPOL =      F    correct potential (dipole corrections)
   IDIPOL =      0    1-x, 2-y, 3-z, 4-all directions 
   EPSILON=  1.0000000 bulk dielectric constant

 Exchange correlation treatment:
   GGA     =    --    GGA type
   LEXCH   =     8    internal setting for exchange type
   LIBXC   =     F    Libxc                    
   VOSKOWN =     0    Vosko Wilk Nusair interpolation
   LHFCALC =     F    Hartree Fock is set to
   LHFONE  =     F    Hartree Fock one center treatment
   AEXX    =    0.0000 exact exchange contribution

 Linear response parameters
   LEPSILON=     F    determine dielectric tensor
   LRPA    =     F    only Hartree local field effects (RPA)
   LNABLA  =     F    use nabla operator in PAW spheres
   LVEL    =     F    velocity operator in full k-point grid
   CSHIFT  =0.1000    complex shift for real part using Kramers Kronig
   OMEGAMAX=  -1.0    maximum frequency
   DEG_THRESHOLD= 0.2000000E-02 threshold for treating states as degnerate
   RTIME   =   -0.100 relaxation time in fs
  (WPLASMAI=    0.000 imaginary part of plasma frequency in eV, 0.658/RTIME)
   DFIELD  = 0.0000000 0.0000000 0.0000000 field for delta impulse in time
 
  Optional k-point grid parameters
   LKPOINTS_OPT  =     F    use optional k-point grid
   KPOINTS_OPT_MODE=     1    mode for optional k-point grid
 
 Orbital magnetization related:
   ORBITALMAG=     F  switch on orbital magnetization
   LCHIMAG   =     F  perturbation theory with respect to B field
   DQ        =  0.001000  dq finite difference perturbation B field
   LLRAUG    =     F  two centre corrections for induced B field
   LBONE     =     F  B-component reconstruction in AE one-centre
   LVGVCALC  =     T  calculate vGv susceptibility
   LVGVAPPL  =     F  apply vGv susceptibility instead of pGv for G=0

 Random number generation:
   RANDOM_GENERATOR = DEFAULT
   PCG_SEED         = not used


--------------------------------------------------------------------------------------------------------


 Static calculation
 charge density and potential will be updated during run
 non-spin polarized calculation
 Variant of blocked Davidson
 Davidson routine will perform the subspace rotation
 perform sub-space diagonalisation
    after iterative eigenvector-optimisation
 modified Broyden-mixing scheme, WC =      100.0
 initial mixing is a Kerker type mixing with AMIX =  0.4000 and BMIX =      1.0000
 Hartree-type preconditioning will be used
 using additional bands           55
 reciprocal scheme for non local part
 use partial core corrections
 calculate Harris-corrections to forces 
   (improved forces if not selfconsistent)
 use gradient corrections 
 use of overlap-Matrix (Vanderbilt PP)
 Gauss-broadening in eV      SIGMA  =   0.05


--------------------------------------------------------------------------------------------------------


  energy-cutoff  :      500.00
  volume of cell :     2941.74
      direct lattice vectors                 reciprocal lattice vectors
    11.656400000  0.000000000  0.000000000     0.085789781  0.049530553  0.000000000
    -5.828232380 10.094835290  0.000000000     0.000000000  0.099060556  0.000000000
     0.000000000  0.000000000 25.000000000     0.000000000  0.000000000  0.040000000

  length of vectors
    11.656400000 11.656499998 25.000000000     0.099061406  0.099060556  0.040000000


 
 k-points in units of 2pi/SCALE and weight: K-Spacing Value to Generate K-Mesh: 0.02
   0.00000000  0.00000000  0.00000000       0.040
   0.01715796  0.00990611  0.00000000       0.080
   0.00000000  0.01981211  0.00000000       0.080
  -0.01715796  0.00990600  0.00000000       0.080
   0.03431591  0.01981222  0.00000000       0.080
   0.00000000  0.03962422  0.00000000       0.080
  -0.03431591  0.01981200  0.00000000       0.080
   0.01715796  0.02971822  0.00000000       0.080
  -0.01715796  0.02971811  0.00000000       0.080
  -0.03431591 -0.00000011  0.00000000       0.080
   0.03431591  0.03962433  0.00000000       0.080
  -0.01715796 -0.04953033  0.00000000       0.080
   0.03431591  0.05943644  0.00000000       0.080
 
 k-points in reciprocal lattice and weights: K-Spacing Value to Generate K-Mesh: 0.02
   0.00000000  0.00000000  0.00000000       0.040
   0.20000000  0.00000000  0.00000000       0.080
   0.00000000  0.20000000  0.00000000       0.080
  -0.20000000  0.20000000  0.00000000       0.080
   0.40000000  0.00000000  0.00000000       0.080
   0.00000000  0.40000000  0.00000000       0.080
  -0.40000000  0.40000000  0.00000000       0.080
   0.20000000  0.20000000  0.00000000       0.080
  -0.20000000  0.40000000  0.00000000       0.080
  -0.40000000  0.20000000  0.00000000       0.080
   0.40000000  0.20000000  0.00000000       0.080
  -0.20000000 -0.40000000  0.00000000       0.080
   0.40000000  0.40000000  0.00000000       0.080
 
 position of ions in fractional coordinates (direct lattice) 
   0.33358499  0.00049404  0.62822345
   0.33437985  0.33380784  0.63020031
   0.33354634  0.66670333  0.62839399
   0.66710078  0.00057458  0.62967959
   0.66686643  0.33291050  0.62908014
   0.66666512  0.66698490  0.62841971
   0.99940073  0.00021064  0.62941354
   0.00005408  0.33365578  0.62962525
   0.99987898  0.66696001  0.62698711
   0.22285522  0.11135537  0.68700660
   0.22286768  0.44554163  0.68732877
   0.22090168  0.77743664  0.68570732
   0.55507225  0.11175290  0.68729559
   0.55657162  0.44527876  0.68718854
   0.55523903  0.77642854  0.68679550
   0.89037913  0.11160313  0.68744909
   0.88932182  0.44658775  0.68650785
   0.88819360  0.77608976  0.68641915
   0.11382604  0.22501829  0.57118718
   0.11096174  0.55245661  0.57102858
   0.10957164  0.89215479  0.57163030
   0.44562747  0.22406315  0.57090737
   0.44355312  0.55290328  0.57076808
   0.44679714  0.89042322  0.57235556
   0.77880891  0.22185552  0.57187920
   0.77498789  0.55372918  0.57056886
   0.77802860  0.89029177  0.57140285
   0.23638599  0.12955012  0.34289132
   0.21586565  0.42832950  0.32570619
   0.22448078  0.78334191  0.32777698
   0.55768002  0.11523392  0.34390856
   0.56322288  0.43436234  0.34531144
   0.55335471  0.76955471  0.34943261
   0.90895079  0.11519532  0.34446213
   0.87423676  0.43773681  0.34180985
   0.87806131  0.75924883  0.34688361
   0.16550692  0.28582219  0.44292019
   0.09118502  0.58579047  0.42636552
   0.11560581  0.89528085  0.42885402
   0.49080581  0.27159593  0.43009491
   0.36134239  0.52231808  0.42867707
   0.43680314  0.88487949  0.42917586
   0.78886183  0.21493787  0.42594896
   0.71734990  0.50971695  0.43285035
   0.77710982  0.88282856  0.42934922
   0.25051691  0.13854980  0.44014189
   0.22239916  0.78655088  0.46195936
   0.56321137  0.11498289  0.44447214
   0.53629583  0.75678406  0.44806267
   0.92128437  0.12334464  0.44259559
   0.87664472  0.43953179  0.44598941
   0.87296686  0.75278406  0.44551115
   0.11320930  0.21447965  0.30390650
   0.11263970  0.55383737  0.33332280
   0.10931559  0.89155536  0.33065422
   0.45136317  0.22195123  0.31178058
   0.44187067  0.54329677  0.33246054
   0.44654079  0.88630502  0.32582322
   0.78281764  0.21638627  0.32265706
   0.77537297  0.55103597  0.31033672
   0.77661952  0.88533847  0.32875787
 
 position of ions in cartesian coordinates  (Angst):
   3.88552077  0.00498720 15.70558623
   1.95215566  3.36973513 15.75500786
   0.00224768  6.73026026 15.70984984
   7.77264474  0.00580027 15.74198965
   5.83298215  3.36067663 15.72700342
   3.88357230  6.73310275 15.71049277
  11.64818704  0.00212638 15.73533858
  -1.94399304  3.36820016 15.74063122
   7.76779141  6.73285145 15.67467768
   1.94868460  1.12411407 17.17516507
   0.00111473  4.49766934 17.18321931
  -1.95616302  7.84809484 17.14268296
   5.81882226  1.12812715 17.18238967
   3.89243338  4.49501576 17.17971348
   1.94688220  7.83791827 17.16988760
   9.72816628  1.12661521 17.18622733
   7.76347373  4.50822975 17.16269636
   5.82990839  7.83449830 17.16047885
   0.01534293  2.27152259 14.27967947
  -1.92643111  5.57695853 14.27571451
  -3.92247457  9.00615564 14.29075739
   3.88851989  2.26188061 14.27268423
   1.94778380  5.58146750 14.26920212
   0.01845279  8.98867576 14.30888892
   7.78508264  2.23959494 14.29697990
   5.80630647  5.58980489 14.26422159
   3.88018528  8.98734877 14.28507133
   2.00036148  1.30778717  8.57228295
   0.01981247  4.32391574  8.14265475
  -1.94886085  7.90770751  8.19442439
   5.82893127  1.16326744  8.59771412
   4.03358657  4.38481629  8.63278596
   1.96498015  7.76852802  8.73581529
   9.92370891  1.16287780  8.61155314
   7.63922148  4.41888098  8.54524627
   5.80995526  7.66449187  8.67209017
   0.26337674  2.88532795 11.07300463
  -2.35123396  5.91345832 10.65913794
  -3.87035728  9.03771277 10.72135046
   4.13810472  2.74171613 10.75237273
   1.16776025  5.27271498 10.71692684
  -0.06573121  8.93271271 10.72939654
   7.94258115  2.16976243 10.64872412
   5.39096854  5.14550865 10.82125865
   3.91297294  8.91200894 10.73373061
   2.11262488  1.39863737 11.00354719
  -1.99182773  7.94010159 11.54898403
   5.89486998  1.16073333 11.11180352
   1.84056536  7.63961047 11.20156685
  10.01997784  1.24514387 11.06488974
   7.65682816  4.43700101 11.14973530
   5.78825045  7.59923112 11.13777884
   0.06957565  2.16513671  7.59766244
  -1.91491948  5.59089706  8.33306995
  -3.92196556  9.00010452  8.26635548
   3.96768627  2.24056110  7.79451444
   1.98416147  5.48449146  8.31151360
   0.03946648  8.94710320  8.14558062
   7.86368606  2.18438376  8.06642640
   5.82649186  5.56261734  7.75841796
   3.89262938  8.93734605  8.21894669
 


--------------------------------------------------------------------------------------------------------


 k-point   1 :   0.0000 0.0000 0.0000  plane waves:   74803
 k-point   2 :   0.2000 0.0000 0.0000  plane waves:   74695
 k-point   3 :   0.0000 0.2000 0.0000  plane waves:   74695
 k-point   4 :  -0.2000 0.2000 0.0000  plane waves:   74695
 k-point   5 :   0.4000 0.0000 0.0000  plane waves:   74663
 k-point   6 :   0.0000 0.4000 0.0000  plane waves:   74659
 k-point   7 :  -0.4000 0.4000 0.0000  plane waves:   74659
 k-point   8 :   0.2000 0.2000 0.0000  plane waves:   74689
 k-point   9 :  -0.2000 0.4000 0.0000  plane waves:   74689
 k-point  10 :  -0.4000 0.2000 0.0000  plane waves:   74689
 k-point  11 :   0.4000 0.2000 0.0000  plane waves:   74676
 k-point  12 :  -0.2000-0.4000 0.0000  plane waves:   74676
 k-point  13 :   0.4000 0.4000 0.0000  plane waves:   74676

 maximum and minimum number of plane-waves per node :      6266     6182

 maximum number of plane-waves:     74803
 maximum index in each direction: 
   IXMAX=   21   IYMAX=   21   IZMAX=   45
   IXMIN=  -21   IYMIN=  -21   IZMIN=  -45


 parallel 3D FFT for wavefunctions:
    minimum data exchange during FFTs selected (reduces bandwidth)
 parallel 3D FFT for charge:
    minimum data exchange during FFTs selected (reduces bandwidth)


 total amount of memory used by VASP MPI-rank0   424580. kBytes
=======================================================================

   base      :      30000. kBytes
   nonl-proj :      53001. kBytes
   fftplans  :      79974. kBytes
   grid      :      45515. kBytes
   one-center:         93. kBytes
   wavefun   :     215997. kBytes
 
     INWAV:  cpu time      0.0001: real time      0.0000
 Broyden mixing: mesh for mixing (old mesh)
   NGX = 43   NGY = 43   NGZ = 91
  (NGX  =180   NGY  =180   NGZ  =384)
  gives a total of 168259 points

 initial charge density was supplied:
 charge density of overlapping atoms calculated
 number of electron     546.0000000 magnetization 
 keeping initial charge density in first step


--------------------------------------------------------------------------------------------------------


 Maximum index for augmentation-charges         7535 (set IRDMAX)


--------------------------------------------------------------------------------------------------------


 First call to EWALD:  gamma=   0.124
 Maximum number of real-space cells 4x 4x 2
 Maximum number of reciprocal cells 2x 2x 4

    FEWALD:  cpu time      0.0026: real time      0.0027


--------------------------------------- Ionic step        1  -------------------------------------------




--------------------------------------- Iteration      1(   1)  ---------------------------------------


    POTLOK:  cpu time      0.5433: real time      0.5484
    SETDIJ:  cpu time      0.7208: real time      0.7267
     EDDAV:  cpu time    160.1994: real time    161.7017
       DOS:  cpu time      0.0087: real time      0.0088
    --------------------------------------------
      LOOP:  cpu time    161.4722: real time    162.9855

 eigenvalue-minimisations  :  8656
 total energy-change (2. order) : 0.4458757E+04  (-0.2252260E+05)
 number of electron     546.0000000 magnetization 
 augmentation part      546.0000000 magnetization 

 Free energy of the ion-electron system (eV)
  ---------------------------------------------------
  alpha Z        PSCENC =       926.05824579
  Ewald energy   TEWEN  =    109234.18946851
  -Hartree energ DENC   =   -159616.35915412
  -exchange      EXHF   =         0.00000000
  -V(xc)+E(xc)   XCENC  =      1626.63457248
  PAW double counting   =     46299.00537307   -49142.15152337
  entropy T*S    EENTRO =        -0.02193246
  eigenvalues    EBANDS =       209.70849281
  atomic energy  EATOM  =     54921.69393056
  Solvation  Ediel_sol  =         0.00000000
  ---------------------------------------------------
  free energy    TOTEN  =      4458.75747327 eV

  energy without entropy =     4458.77940573  energy(sigma->0) =     4458.76843950


--------------------------------------------------------------------------------------------------------




--------------------------------------- Iteration      1(   2)  ---------------------------------------


     EDDAV:  cpu time    175.8201: real time    177.4635
       DOS:  cpu time      0.0063: real time      0.0064
    --------------------------------------------
      LOOP:  cpu time    175.8264: real time    177.4699

 eigenvalue-minimisations  :  9760
 total energy-change (2. order) :-0.3958763E+04  (-0.3775491E+04)
 number of electron     546.0000000 magnetization 
 augmentation part      546.0000000 magnetization 

 Free energy of the ion-electron system (eV)
  ---------------------------------------------------
  alpha Z        PSCENC =       926.05824579
  Ewald energy   TEWEN  =    109234.18946851
  -Hartree energ DENC   =   -159616.35915412
  -exchange      EXHF   =         0.00000000
  -V(xc)+E(xc)   XCENC  =      1626.63457248
  PAW double counting   =     46299.00537307   -49142.15152337
  entropy T*S    EENTRO =        -0.00000000
  eigenvalues    EBANDS =     -3749.07644448
  atomic energy  EATOM  =     54921.69393056
  Solvation  Ediel_sol  =         0.00000000
  ---------------------------------------------------
  free energy    TOTEN  =       499.99446845 eV

  energy without entropy =      499.99446845  energy(sigma->0) =      499.99446845


--------------------------------------------------------------------------------------------------------




--------------------------------------- Iteration      1(   3)  ---------------------------------------


     EDDAV:  cpu time    174.6001: real time    176.1238
       DOS:  cpu time      0.0069: real time      0.0069
    --------------------------------------------
      LOOP:  cpu time    174.6070: real time    176.1307

 eigenvalue-minimisations  :  9768
 total energy-change (2. order) :-0.6527841E+03  (-0.6466889E+03)
 number of electron     546.0000000 magnetization 
 augmentation part      546.0000000 magnetization 

 Free energy of the ion-electron system (eV)
  ---------------------------------------------------
  alpha Z        PSCENC =       926.05824579
  Ewald energy   TEWEN  =    109234.18946851
  -Hartree energ DENC   =   -159616.35915412
  -exchange      EXHF   =         0.00000000
  -V(xc)+E(xc)   XCENC  =      1626.63457248
  PAW double counting   =     46299.00537307   -49142.15152337
  entropy T*S    EENTRO =        -0.00000000
  eigenvalues    EBANDS =     -4401.86051955
  atomic energy  EATOM  =     54921.69393056
  Solvation  Ediel_sol  =         0.00000000
  ---------------------------------------------------
  free energy    TOTEN  =      -152.78960663 eV

  energy without entropy =     -152.78960663  energy(sigma->0) =     -152.78960663


--------------------------------------------------------------------------------------------------------




--------------------------------------- Iteration      1(   4)  ---------------------------------------


     EDDAV:  cpu time    163.8185: real time    165.2039
       DOS:  cpu time      0.0116: real time      0.0116
    --------------------------------------------
      LOOP:  cpu time    163.8301: real time    165.2155

 eigenvalue-minimisations  :  9632
 total energy-change (2. order) :-0.3485964E+02  (-0.3460627E+02)
 number of electron     546.0000000 magnetization 
 augmentation part      546.0000000 magnetization 

 Free energy of the ion-electron system (eV)
  ---------------------------------------------------
  alpha Z        PSCENC =       926.05824579
  Ewald energy   TEWEN  =    109234.18946851
  -Hartree energ DENC   =   -159616.35915412
  -exchange      EXHF   =         0.00000000
  -V(xc)+E(xc)   XCENC  =      1626.63457248
  PAW double counting   =     46299.00537307   -49142.15152337
  entropy T*S    EENTRO =        -0.00000000
  eigenvalues    EBANDS =     -4436.72016443
  atomic energy  EATOM  =     54921.69393056
  Solvation  Ediel_sol  =         0.00000000
  ---------------------------------------------------
  free energy    TOTEN  =      -187.64925151 eV

  energy without entropy =     -187.64925151  energy(sigma->0) =     -187.64925151


--------------------------------------------------------------------------------------------------------




--------------------------------------- Iteration      1(   5)  ---------------------------------------


     EDDAV:  cpu time    163.1648: real time    164.5171
       DOS:  cpu time      0.0145: real time      0.0146
    CHARGE:  cpu time      7.0022: real time      7.0668
    MIXING:  cpu time      0.0187: real time      0.0188
    --------------------------------------------
      LOOP:  cpu time    170.2006: real time    171.6177

 eigenvalue-minimisations  :  9968
 total energy-change (2. order) :-0.1016020E+01  (-0.1014696E+01)
 number of electron     546.0000008 magnetization 
 augmentation part      164.5688025 magnetization 

 Broyden mixing:
  rms(total) = 0.35640E+01    rms(broyden)= 0.35640E+01
  rms(prec ) = 0.36480E+01
  weight for this iteration     100.00

 Free energy of the ion-electron system (eV)
  ---------------------------------------------------
  alpha Z        PSCENC =       926.05824579
  Ewald energy   TEWEN  =    109234.18946851
  -Hartree energ DENC   =   -159616.35915412
  -exchange      EXHF   =         0.00000000
  -V(xc)+E(xc)   XCENC  =      1626.63457248
  PAW double counting   =     46299.00537307   -49142.15152337
  entropy T*S    EENTRO =        -0.00000000
  eigenvalues    EBANDS =     -4437.73618486
  atomic energy  EATOM  =     54921.69393056
  Solvation  Ediel_sol  =         0.00000000
  ---------------------------------------------------
  free energy    TOTEN  =      -188.66527193 eV

  energy without entropy =     -188.66527193  energy(sigma->0) =     -188.66527193


--------------------------------------------------------------------------------------------------------




--------------------------------------- Iteration      1(   6)  ---------------------------------------


    POTLOK:  cpu time      0.5303: real time      0.5343
    SETDIJ:  cpu time      0.6762: real time      0.6802
     EDDAV:  cpu time    181.2995: real time    182.7238
       DOS:  cpu time      0.0063: real time      0.0063
    CHARGE:  cpu time      5.0545: real time      5.0910
    MIXING:  cpu time      0.0512: real time      0.0514
    --------------------------------------------
      LOOP:  cpu time    187.6176: real time    189.0867

 eigenvalue-minimisations  : 12144
 total energy-change (2. order) : 0.1481128E+02  (-0.2741846E+01)
 number of electron     546.0000008 magnetization 
 augmentation part      166.9523924 magnetization 

 Broyden mixing:
  rms(total) = 0.28465E+01    rms(broyden)= 0.28465E+01
  rms(prec ) = 0.28632E+01
  weight for this iteration     100.00

 eigenvalues of (default mixing * dielectric matrix)
  average eigenvalue GAMMA=   2.1580
  2.1580

 Free energy of the ion-electron system (eV)
  ---------------------------------------------------
  alpha Z        PSCENC =       926.05824579
  Ewald energy   TEWEN  =    109234.18946851
  -Hartree energ DENC   =   -159447.68745850
  -exchange      EXHF   =         0.00000000
  -V(xc)+E(xc)   XCENC  =      1630.56320328
  PAW double counting   =     49304.69037127   -52092.81531762
  entropy T*S    EENTRO =        -0.00000000
  eigenvalues    EBANDS =     -4650.54643681
  atomic energy  EATOM  =     54921.69393056
  Solvation  Ediel_sol  =         0.00000000
  ---------------------------------------------------
  free energy    TOTEN  =      -173.85399352 eV

  energy without entropy =     -173.85399352  energy(sigma->0) =     -173.85399352


--------------------------------------------------------------------------------------------------------




--------------------------------------- Iteration      1(   7)  ---------------------------------------


    POTLOK:  cpu time      0.4047: real time      0.4071
    SETDIJ:  cpu time      0.5605: real time      0.5634
     EDDAV:  cpu time    126.0877: real time    126.9067
       DOS:  cpu time      0.0071: real time      0.0072
    CHARGE:  cpu time      4.3673: real time      4.3982
    MIXING:  cpu time      0.0570: real time      0.0573
    --------------------------------------------
      LOOP:  cpu time    131.4844: real time    132.3400

 eigenvalue-minimisations  :  9584
 total energy-change (2. order) :-0.5678134E+00  (-0.3463574E+01)
 number of electron     546.0000008 magnetization 
 augmentation part      167.6527947 magnetization 

 Broyden mixing:
  rms(total) = 0.11834E+01    rms(broyden)= 0.11834E+01
  rms(prec ) = 0.11979E+01
  weight for this iteration     100.00

 eigenvalues of (default mixing * dielectric matrix)
  average eigenvalue GAMMA=   1.7344
  1.1528  2.3159

 Free energy of the ion-electron system (eV)
  ---------------------------------------------------
  alpha Z        PSCENC =       926.05824579
  Ewald energy   TEWEN  =    109234.18946851
  -Hartree energ DENC   =   -159456.49842927
  -exchange      EXHF   =         0.00000000
  -V(xc)+E(xc)   XCENC  =      1638.60686516
  PAW double counting   =     54904.21704161   -57733.67102484
  entropy T*S    EENTRO =        -0.00000000
  eigenvalues    EBANDS =     -4609.01790444
  atomic energy  EATOM  =     54921.69393056
  Solvation  Ediel_sol  =         0.00000000
  ---------------------------------------------------
  free energy    TOTEN  =      -174.42180692 eV

  energy without entropy =     -174.42180692  energy(sigma->0) =     -174.42180692


--------------------------------------------------------------------------------------------------------




--------------------------------------- Iteration      1(   8)  ---------------------------------------


    POTLOK:  cpu time      0.3750: real time      0.3773
    SETDIJ:  cpu time      0.5558: real time      0.5587
     EDDAV:  cpu time    125.9795: real time    126.8418
       DOS:  cpu time      0.0083: real time      0.0084
    CHARGE:  cpu time      4.3727: real time      4.4055
    MIXING:  cpu time      0.0403: real time      0.0405
    --------------------------------------------
      LOOP:  cpu time    131.3316: real time    132.2322

 eigenvalue-minimisations  : 10672
 total energy-change (2. order) : 0.6669361E+00  (-0.5212890E+00)
 number of electron     546.0000008 magnetization 
 augmentation part      167.0457761 magnetization 

 Broyden mixing:
  rms(total) = 0.29720E+00    rms(broyden)= 0.29719E+00
  rms(prec ) = 0.30118E+00
  weight for this iteration     100.00

 eigenvalues of (default mixing * dielectric matrix)
  average eigenvalue GAMMA=   1.4771
  2.2843  1.0736  1.0736

 Free energy of the ion-electron system (eV)
  ---------------------------------------------------
  alpha Z        PSCENC =       926.05824579
  Ewald energy   TEWEN  =    109234.18946851
  -Hartree energ DENC   =   -159456.06185174
  -exchange      EXHF   =         0.00000000
  -V(xc)+E(xc)   XCENC  =      1636.37069789
  PAW double counting   =     56740.62852545   -59580.43799460
  entropy T*S    EENTRO =        -0.00000000
  eigenvalues    EBANDS =     -4596.19589272
  atomic energy  EATOM  =     54921.69393056
  Solvation  Ediel_sol  =         0.00000000
  ---------------------------------------------------
  free energy    TOTEN  =      -173.75487086 eV

  energy without entropy =     -173.75487086  energy(sigma->0) =     -173.75487086


--------------------------------------------------------------------------------------------------------




--------------------------------------- Iteration      1(   9)  ---------------------------------------


    POTLOK:  cpu time      0.3601: real time      0.3623
    SETDIJ:  cpu time      0.5358: real time      0.5386
     EDDAV:  cpu time    122.1486: real time    122.9885
       DOS:  cpu time      0.0064: real time      0.0064
    CHARGE:  cpu time      4.3410: real time      4.3744
    MIXING:  cpu time      0.0428: real time      0.0430
    --------------------------------------------
      LOOP:  cpu time    127.4347: real time    128.3132

 eigenvalue-minimisations  : 10376
 total energy-change (2. order) :-0.2831881E-02  (-0.6260473E-01)
 number of electron     546.0000008 magnetization 
 augmentation part      167.0710353 magnetization 

 Broyden mixing:
  rms(total) = 0.11707E+00    rms(broyden)= 0.11707E+00
  rms(prec ) = 0.11981E+00
  weight for this iteration     100.00

 eigenvalues of (default mixing * dielectric matrix)
  average eigenvalue GAMMA=   1.3676
  2.3058  1.1445  1.1445  0.8756

 Free energy of the ion-electron system (eV)
  ---------------------------------------------------
  alpha Z        PSCENC =       926.05824579
  Ewald energy   TEWEN  =    109234.18946851
  -Hartree energ DENC   =   -159434.61886352
  -exchange      EXHF   =         0.00000000
  -V(xc)+E(xc)   XCENC  =      1635.97312785
  PAW double counting   =     57027.87317287   -59861.71708032
  entropy T*S    EENTRO =        -0.00000000
  eigenvalues    EBANDS =     -4623.20970447
  atomic energy  EATOM  =     54921.69393056
  Solvation  Ediel_sol  =         0.00000000
  ---------------------------------------------------
  free energy    TOTEN  =      -173.75770274 eV

  energy without entropy =     -173.75770274  energy(sigma->0) =     -173.75770274


--------------------------------------------------------------------------------------------------------




--------------------------------------- Iteration      1(  10)  ---------------------------------------


    POTLOK:  cpu time      0.3567: real time      0.3589
    SETDIJ:  cpu time      0.5438: real time      0.5466
     EDDAV:  cpu time    117.6083: real time    118.4236
       DOS:  cpu time      0.0062: real time      0.0062
    CHARGE:  cpu time      4.7050: real time      4.7391
    MIXING:  cpu time      0.0478: real time      0.0480
    --------------------------------------------
      LOOP:  cpu time    123.2678: real time    124.1225

 eigenvalue-minimisations  :  9944
 total energy-change (2. order) :-0.4561094E-02  (-0.1123793E-01)
 number of electron     546.0000008 magnetization 
 augmentation part      167.1167765 magnetization 

 Broyden mixing:
  rms(total) = 0.78519E-01    rms(broyden)= 0.78519E-01
  rms(prec ) = 0.80411E-01
  weight for this iteration     100.00

 eigenvalues of (default mixing * dielectric matrix)
  average eigenvalue GAMMA=   1.3146
  2.1304  1.4671  1.0965  1.0965  0.7823

 Free energy of the ion-electron system (eV)
  ---------------------------------------------------
  alpha Z        PSCENC =       926.05824579
  Ewald energy   TEWEN  =    109234.18946851
  -Hartree energ DENC   =   -159426.55357949
  -exchange      EXHF   =         0.00000000
  -V(xc)+E(xc)   XCENC  =      1635.77687505
  PAW double counting   =     57085.99285544   -59917.34058286
  entropy T*S    EENTRO =        -0.00000000
  eigenvalues    EBANDS =     -4633.57947683
  atomic energy  EATOM  =     54921.69393056
  Solvation  Ediel_sol  =         0.00000000
  ---------------------------------------------------
  free energy    TOTEN  =      -173.76226383 eV

  energy without entropy =     -173.76226383  energy(sigma->0) =     -173.76226383


--------------------------------------------------------------------------------------------------------




--------------------------------------- Iteration      1(  11)  ---------------------------------------


    POTLOK:  cpu time      0.3555: real time      0.3577
    SETDIJ:  cpu time      0.5331: real time      0.5359
     EDDAV:  cpu time    124.8720: real time    125.7327
       DOS:  cpu time      0.0061: real time      0.0061
    CHARGE:  cpu time      4.3220: real time      4.3542
    MIXING:  cpu time      0.0496: real time      0.0498
    --------------------------------------------
      LOOP:  cpu time    130.1383: real time    131.0365

 eigenvalue-minimisations  : 10736
 total energy-change (2. order) :-0.2879231E-02  (-0.3087751E-02)
 number of electron     546.0000008 magnetization 
 augmentation part      167.1107056 magnetization 

 Broyden mixing:
  rms(total) = 0.54443E-01    rms(broyden)= 0.54442E-01
  rms(prec ) = 0.56143E-01
  weight for this iteration     100.00

 eigenvalues of (default mixing * dielectric matrix)
  average eigenvalue GAMMA=   1.3849
  2.1012  2.1012  1.2457  1.2457  0.9380  0.6776

 Free energy of the ion-electron system (eV)
  ---------------------------------------------------
  alpha Z        PSCENC =       926.05824579
  Ewald energy   TEWEN  =    109234.18946851
  -Hartree energ DENC   =   -159425.25857374
  -exchange      EXHF   =         0.00000000
  -V(xc)+E(xc)   XCENC  =      1635.67884648
  PAW double counting   =     57029.99030794   -59860.97086307
  entropy T*S    EENTRO =        -0.00000000
  eigenvalues    EBANDS =     -4635.14650553
  atomic energy  EATOM  =     54921.69393056
  Solvation  Ediel_sol  =         0.00000000
  ---------------------------------------------------
  free energy    TOTEN  =      -173.76514306 eV

  energy without entropy =     -173.76514306  energy(sigma->0) =     -173.76514306


--------------------------------------------------------------------------------------------------------




--------------------------------------- Iteration      1(  12)  ---------------------------------------


    POTLOK:  cpu time      0.3586: real time      0.3608
    SETDIJ:  cpu time      0.5310: real time      0.5340
     EDDAV:  cpu time    120.8759: real time    121.7015
       DOS:  cpu time      0.0068: real time      0.0069
    CHARGE:  cpu time      4.3139: real time      4.3485
    MIXING:  cpu time      0.0442: real time      0.0444
    --------------------------------------------
      LOOP:  cpu time    126.1305: real time    126.9961

 eigenvalue-minimisations  : 10896
 total energy-change (2. order) :-0.1638685E-02  (-0.8767352E-03)
 number of electron     546.0000008 magnetization 
 augmentation part      167.1094092 magnetization 

 Broyden mixing:
  rms(total) = 0.22059E-01    rms(broyden)= 0.22059E-01
  rms(prec ) = 0.23978E-01
  weight for this iteration     100.00

 eigenvalues of (default mixing * dielectric matrix)
  average eigenvalue GAMMA=   1.4421
  2.3586  2.3586  1.6161  1.1254  1.1254  0.8731  0.6374

 Free energy of the ion-electron system (eV)
  ---------------------------------------------------
  alpha Z        PSCENC =       926.05824579
  Ewald energy   TEWEN  =    109234.18946851
  -Hartree energ DENC   =   -159423.96726002
  -exchange      EXHF   =         0.00000000
  -V(xc)+E(xc)   XCENC  =      1635.68515282
  PAW double counting   =     56984.11851550   -59814.93928355
  entropy T*S    EENTRO =        -0.00000000
  eigenvalues    EBANDS =     -4636.60555135
  atomic energy  EATOM  =     54921.69393056
  Solvation  Ediel_sol  =         0.00000000
  ---------------------------------------------------
  free energy    TOTEN  =      -173.76678175 eV

  energy without entropy =     -173.76678175  energy(sigma->0) =     -173.76678175


--------------------------------------------------------------------------------------------------------




--------------------------------------- Iteration      1(  13)  ---------------------------------------


    POTLOK:  cpu time      0.3616: real time      0.3639
    SETDIJ:  cpu time      0.5296: real time      0.5324
     EDDAV:  cpu time    121.4807: real time    122.3489
       DOS:  cpu time      0.0064: real time      0.0064
    CHARGE:  cpu time      4.2806: real time      4.3134
    MIXING:  cpu time      0.0542: real time      0.0545
    --------------------------------------------
      LOOP:  cpu time    126.7131: real time    127.6196

 eigenvalue-minimisations  : 10424
 total energy-change (2. order) :-0.1331258E-02  (-0.5433619E-03)
 number of electron     546.0000008 magnetization 
 augmentation part      167.1154600 magnetization 

 Broyden mixing:
  rms(total) = 0.93965E-02    rms(broyden)= 0.93962E-02
  rms(prec ) = 0.10746E-01
  weight for this iteration     100.00

 eigenvalues of (default mixing * dielectric matrix)
  average eigenvalue GAMMA=   1.4110
  2.5728  1.9875  1.9875  1.1044  1.1044  0.9509  0.9509  0.6297

 Free energy of the ion-electron system (eV)
  ---------------------------------------------------
  alpha Z        PSCENC =       926.05824579
  Ewald energy   TEWEN  =    109234.18946851
  -Hartree energ DENC   =   -159421.92082753
  -exchange      EXHF   =         0.00000000
  -V(xc)+E(xc)   XCENC  =      1635.72203874
  PAW double counting   =     57000.60969377   -59831.27829176
  entropy T*S    EENTRO =        -0.00000000
  eigenvalues    EBANDS =     -4638.84237108
  atomic energy  EATOM  =     54921.69393056
  Solvation  Ediel_sol  =         0.00000000
  ---------------------------------------------------
  free energy    TOTEN  =      -173.76811300 eV

  energy without entropy =     -173.76811300  energy(sigma->0) =     -173.76811300


--------------------------------------------------------------------------------------------------------




--------------------------------------- Iteration      1(  14)  ---------------------------------------


    POTLOK:  cpu time      0.3589: real time      0.3611
    SETDIJ:  cpu time      0.5228: real time      0.5256
     EDDAV:  cpu time    116.8140: real time    117.6382
       DOS:  cpu time      0.0064: real time      0.0064
    CHARGE:  cpu time      4.6647: real time      4.6995
    MIXING:  cpu time      0.0535: real time      0.0538
    --------------------------------------------
      LOOP:  cpu time    122.4203: real time    123.2847

 eigenvalue-minimisations  :  9904
 total energy-change (2. order) :-0.1097986E-02  (-0.3078198E-03)
 number of electron     546.0000008 magnetization 
 augmentation part      167.1158396 magnetization 

 Broyden mixing:
  rms(total) = 0.99506E-02    rms(broyden)= 0.99503E-02
  rms(prec ) = 0.10736E-01
  weight for this iteration     100.00

 eigenvalues of (default mixing * dielectric matrix)
  average eigenvalue GAMMA=   1.4277
  3.1844  2.1981  1.8046  1.3656  1.1147  1.1147  0.9237  0.6407  0.5024

 Free energy of the ion-electron system (eV)
  ---------------------------------------------------
  alpha Z        PSCENC =       926.05824579
  Ewald energy   TEWEN  =    109234.18946851
  -Hartree energ DENC   =   -159421.19102761
  -exchange      EXHF   =         0.00000000
  -V(xc)+E(xc)   XCENC  =      1635.72219600
  PAW double counting   =     57002.59469797   -59833.29161498
  entropy T*S    EENTRO =        -0.00000000
  eigenvalues    EBANDS =     -4639.54510723
  atomic energy  EATOM  =     54921.69393056
  Solvation  Ediel_sol  =         0.00000000
  ---------------------------------------------------
  free energy    TOTEN  =      -173.76921099 eV

  energy without entropy =     -173.76921099  energy(sigma->0) =     -173.76921099


--------------------------------------------------------------------------------------------------------




--------------------------------------- Iteration      1(  15)  ---------------------------------------


[...]
  E(xc)   -2676.69518 -2675.84632 -2683.10598     0.59161     0.03634     0.01027
  Local  ************************291464.62834  -626.86221    29.59071  -113.04600
  n-local  1258.41493  1258.72715  1238.00636     0.44851     0.20634    -0.22814
  augment   378.59988   379.38175   375.71720     0.78857     0.08085    -0.52584
  Kinetic  5969.48907  5958.53921  6110.14850    -7.14555    -1.76955    -0.12508
  Fock        0.00000     0.00000     0.00000     0.00000     0.00000     0.00000
  vdW       -11.76357   -11.38526    -5.97614     0.19135    -0.01912    -0.08747
  -------------------------------------------------------------------------------------
  Total     -12.15768   -18.80876    -1.13335    -4.68947     0.04400     0.02152
  in kB      -6.62152   -10.24394    -0.61726    -2.55406     0.02396     0.01172
  external pressure =       -5.83 kB  Pullay stress =        0.00 kB


 VOLUME and BASIS-vectors are now :
 -----------------------------------------------------------------------------
  energy-cutoff  :      500.00
  volume of cell :     2941.74
      direct lattice vectors                 reciprocal lattice vectors
    11.656400000  0.000000000  0.000000000     0.085789781  0.049530553  0.000000000
    -5.828232380 10.094835290  0.000000000     0.000000000  0.099060556  0.000000000
     0.000000000  0.000000000 25.000000000     0.000000000  0.000000000  0.040000000

  length of vectors
    11.656400000 11.656499998 25.000000000     0.099061406  0.099060556  0.040000000


 FORCES acting on ions
    electron-ion (+dipol)            ewald-force                    non-local-force                 convergence-correction
 -----------------------------------------------------------------------------------------------
   0.284E+01 -.293E+01 -.146E+04   -.274E+01 0.280E+01 0.146E+04   -.101E+00 0.134E+00 -.123E+00   0.535E-06 -.196E-05 0.123E-04
   0.726E+00 -.167E+01 -.148E+04   -.689E+00 0.176E+01 0.148E+04   -.340E-01 -.869E-01 -.111E+00   -.121E-05 -.224E-05 0.141E-04
   -.559E+01 0.404E+01 -.145E+04   0.551E+01 -.394E+01 0.145E+04   0.901E-01 -.103E+00 -.167E+00   -.167E-05 0.295E-05 0.155E-04
   -.610E+01 0.228E+01 -.147E+04   0.593E+01 -.233E+01 0.147E+04   0.178E+00 0.481E-01 0.202E+00   -.114E-06 0.217E-06 0.132E-04
   0.122E+01 -.939E+00 -.147E+04   -.120E+01 0.927E+00 0.147E+04   -.215E-01 0.112E-01 -.843E-01   0.221E-05 -.103E-05 0.121E-04
   0.441E+01 -.960E+00 -.145E+04   -.432E+01 0.102E+01 0.145E+04   -.846E-01 -.581E-01 -.198E+00   0.101E-05 0.255E-05 0.133E-04
   0.399E+01 -.371E+01 -.146E+04   -.385E+01 0.335E+01 0.146E+04   -.144E+00 0.357E+00 -.170E-01   -.435E-06 0.222E-06 0.122E-04
   -.363E+01 0.300E+01 -.147E+04   0.348E+01 -.280E+01 0.147E+04   0.146E+00 -.193E+00 0.537E-01   -.852E-06 -.156E-05 0.144E-04
   0.193E+01 0.564E+00 -.144E+04   -.192E+01 -.483E+00 0.144E+04   -.139E-01 -.840E-01 -.347E+00   0.549E-06 0.109E-05 0.126E-04
   0.181E-01 0.338E+01 -.133E+04   0.900E-02 -.350E+01 0.133E+04   -.262E-01 0.121E+00 -.301E+01   0.697E-07 -.158E-05 -.171E-05
   0.834E+00 -.220E+01 -.133E+04   -.858E+00 0.226E+01 0.134E+04   0.228E-01 -.558E-01 -.300E+01   -.150E-05 0.125E-05 0.933E-06
   0.832E+00 0.727E+00 -.133E+04   -.863E+00 -.739E+00 0.133E+04   0.315E-01 0.873E-02 -.298E+01   0.292E-06 -.305E-06 -.302E-06
   0.969E+00 0.216E+01 -.133E+04   -.103E+01 -.221E+01 0.134E+04   0.577E-01 0.503E-01 -.299E+01   0.433E-06 -.165E-05 -.307E-05
   -.157E+01 -.306E+01 -.133E+04   0.167E+01 0.314E+01 0.134E+04   -.962E-01 -.809E-01 -.301E+01   0.499E-06 0.658E-06 -.201E-05
   0.224E+00 0.514E+00 -.133E+04   -.247E+00 -.528E+00 0.133E+04   0.201E-01 0.167E-01 -.300E+01   -.132E-05 0.751E-06 -.928E-06
   0.648E+00 0.780E+00 -.133E+04   -.706E+00 -.779E+00 0.134E+04   0.559E-01 -.547E-03 -.305E+01   -.481E-06 -.162E-06 -.138E-05
   -.433E+00 -.339E+01 -.133E+04   0.421E+00 0.350E+01 0.133E+04   0.158E-01 -.108E+00 -.300E+01   0.903E-06 0.103E-05 -.110E-05
   -.151E+01 0.753E+00 -.133E+04   0.159E+01 -.800E+00 0.133E+04   -.807E-01 0.474E-01 -.299E+01   0.982E-06 -.548E-07 -.244E-05
   0.392E+01 0.670E+01 -.383E+03   -.395E+01 -.684E+01 0.381E+03   0.303E-01 0.143E+00 0.266E+01   -.980E-06 -.283E-05 0.339E-05
   -.821E+01 0.101E+02 -.372E+03   0.822E+01 -.100E+02 0.369E+03   -.543E-02 -.876E-02 0.311E+01   -.250E-05 0.198E-05 0.488E-05
   0.882E+01 -.807E+01 -.381E+03   -.875E+01 0.810E+01 0.378E+03   -.641E-01 -.296E-01 0.319E+01   0.754E-06 -.610E-06 0.350E-05
   0.754E+01 -.146E+01 -.375E+03   -.761E+01 0.144E+01 0.372E+03   0.698E-01 0.265E-01 0.298E+01   0.152E-05 -.340E-05 0.463E-05
   -.685E+01 -.108E+01 -.358E+03   0.685E+01 0.111E+01 0.355E+03   0.287E-02 -.230E-01 0.300E+01   -.372E-06 0.292E-05 0.571E-05
   -.900E+01 -.490E+00 -.388E+03   0.903E+01 0.489E+00 0.385E+03   -.309E-01 0.272E-02 0.325E+01   -.435E-06 0.102E-05 0.502E-05
   -.687E+01 0.369E+01 -.380E+03   0.686E+01 -.370E+01 0.376E+03   0.750E-02 0.895E-02 0.317E+01   -.581E-06 -.932E-06 0.531E-05
   0.782E+01 -.515E+01 -.378E+03   -.779E+01 0.515E+01 0.375E+03   -.302E-01 -.232E-02 0.300E+01   0.253E-05 0.116E-05 0.398E-05
   0.439E+00 -.376E+00 -.370E+03   -.460E+00 0.410E+00 0.367E+03   0.231E-01 -.382E-01 0.306E+01   -.152E-06 0.818E-06 0.524E-05
   0.313E+02 0.436E+02 0.178E+04   -.308E+02 -.415E+02 -.178E+04   -.567E+00 -.210E+01 0.860E+00   -.115E-05 0.233E-05 -.105E-04
   0.469E+02 -.419E+02 0.203E+04   -.458E+02 0.385E+02 -.203E+04   -.113E+01 0.342E+01 0.108E+01   0.726E-05 -.473E-05 -.688E-05
   -.310E+01 0.979E+01 0.206E+04   0.319E+01 -.780E+01 -.206E+04   -.104E+00 -.200E+01 -.308E-01   -.226E-05 0.111E-05 -.214E-05
   -.499E+01 0.667E+02 0.184E+04   0.401E+01 -.653E+02 -.184E+04   0.982E+00 -.138E+01 0.141E+01   -.352E-05 0.166E-05 -.126E-04
   0.102E+03 -.912E+02 0.180E+04   -.100E+03 0.901E+02 -.180E+04   -.141E+01 0.111E+01 0.181E+01   -.277E-05 0.134E-05 -.114E-04
   -.139E+02 0.254E+02 0.177E+04   0.144E+02 -.254E+02 -.177E+04   -.602E+00 -.337E-01 0.243E+00   0.293E-05 -.457E-05 -.104E-04
   -.379E+02 0.224E+02 0.179E+04   0.392E+02 -.216E+02 -.179E+04   -.129E+01 -.839E+00 0.939E+00   0.500E-05 -.141E-06 -.128E-04
   -.593E+02 -.321E+02 0.187E+04   0.566E+02 0.311E+02 -.187E+04   0.266E+01 0.101E+01 0.203E+01   -.319E-05 0.353E-05 -.797E-05
   -.437E+01 -.226E+02 0.179E+04   0.354E+01 0.208E+02 -.179E+04   0.822E+00 0.174E+01 0.805E+00   -.226E-06 -.265E-05 -.132E-04
   0.867E+02 0.155E+02 0.996E+02   -.840E+02 -.103E+02 -.100E+03   -.271E+01 -.521E+01 0.828E+00   0.308E-05 -.195E-05 0.249E-05
   -.953E+02 0.603E+02 0.316E+03   0.934E+02 -.579E+02 -.315E+03   0.195E+01 -.233E+01 -.101E+01   -.233E-05 0.230E-05 -.802E-06
   0.493E+02 -.618E+02 0.274E+03   -.467E+02 0.603E+02 -.275E+03   -.265E+01 0.145E+01 0.679E+00   0.330E-05 0.365E-06 0.359E-05
   0.953E+02 0.262E+02 0.178E+03   -.941E+02 -.226E+02 -.178E+03   -.121E+01 -.366E+01 -.172E+00   0.566E-06 0.117E-05 0.314E-05
   -.329E+02 -.576E+02 0.243E+03   0.286E+02 0.517E+02 -.241E+03   0.425E+01 0.588E+01 -.153E+01   0.163E-05 -.138E-05 -.271E-05
   0.418E+01 0.377E+01 0.288E+03   -.453E+01 -.468E+01 -.286E+03   0.351E+00 0.896E+00 -.150E+01   -.275E-05 -.208E-05 0.375E-05
   -.684E+02 0.284E+02 0.281E+03   0.687E+02 -.289E+02 -.280E+03   -.285E+00 0.466E+00 -.115E+01   -.715E-06 0.313E-05 0.341E-05
   0.697E+02 -.116E+03 0.146E+03   -.732E+02 0.112E+03 -.146E+03   0.346E+01 0.462E+01 0.603E+00   0.165E-05 -.529E-05 0.394E-05
   0.158E+02 -.236E+02 0.220E+03   -.131E+02 0.218E+02 -.221E+03   -.271E+01 0.179E+01 0.668E+00   -.943E-06 0.266E-07 0.286E-05
   0.164E+01 0.319E+02 0.250E+01   -.166E+01 -.318E+02 -.532E+00   0.105E-01 -.275E-01 -.198E+01   0.606E-06 0.238E-06 0.159E-05
   -.164E+02 -.905E+01 -.138E+03   0.165E+02 0.971E+01 0.143E+03   -.106E+00 -.659E+00 -.528E+01   0.765E-07 0.969E-06 0.246E-05
   0.155E+02 0.292E+02 -.560E+02   -.157E+02 -.291E+02 0.591E+02   0.261E+00 -.908E-01 -.309E+01   0.661E-06 0.117E-05 0.959E-06
   -.404E+02 0.435E+02 -.729E+02   0.408E+02 -.439E+02 0.759E+02   -.372E+00 0.319E+00 -.300E+01   -.254E-06 0.182E-05 0.135E-05
   -.599E+02 0.734E+01 -.227E+02   0.607E+02 -.764E+01 0.247E+02   -.871E+00 0.292E+00 -.210E+01   -.156E-05 0.898E-07 0.269E-06
   -.222E+02 -.600E+01 -.623E+02   0.214E+02 0.562E+01 0.654E+02   0.819E+00 0.388E+00 -.315E+01   -.132E-05 -.141E-05 0.141E-05
   -.150E+02 0.178E+02 -.516E+02   0.157E+02 -.182E+02 0.544E+02   -.671E+00 0.359E+00 -.281E+01   0.166E-06 -.519E-07 0.233E-05
   0.754E+01 0.449E+02 0.121E+04   -.735E+01 -.463E+02 -.122E+04   -.181E+00 0.143E+01 0.490E+01   -.547E-06 -.960E-06 -.414E-05
   -.180E+02 0.152E+02 0.102E+04   0.170E+02 -.158E+02 -.102E+04   0.100E+01 0.566E+00 0.137E+01   -.160E-05 0.225E-06 -.126E-05
   0.358E+02 -.227E+02 0.107E+04   -.373E+02 0.238E+02 -.107E+04   0.146E+01 -.109E+01 0.200E+01   0.718E-07 0.175E-06 -.464E-05
   0.117E+02 0.241E+02 0.121E+04   -.119E+02 -.240E+02 -.122E+04   0.137E+00 -.134E+00 0.502E+01   0.130E-05 -.977E-06 -.566E-05
   -.284E+02 -.264E+02 0.103E+04   0.291E+02 0.269E+02 -.103E+04   -.725E+00 -.509E+00 0.186E+01   0.368E-06 -.695E-06 -.527E-05
   -.326E+02 -.146E+00 0.111E+04   0.337E+02 0.941E+00 -.111E+04   -.110E+01 -.788E+00 0.257E+01   -.182E-06 0.222E-05 -.459E-05
   -.285E+02 0.321E+02 0.115E+04   0.287E+02 -.327E+02 -.116E+04   -.246E+00 0.600E+00 0.359E+01   -.652E-06 -.961E-06 -.479E-05
   0.598E+01 -.359E+02 0.122E+04   -.644E+01 0.360E+02 -.123E+04   0.449E+00 -.150E+00 0.530E+01   0.402E-06 -.577E-07 -.573E-05
   0.530E+01 -.939E+01 0.111E+04   -.509E+01 0.965E+01 -.112E+04   -.210E+00 -.252E+00 0.310E+01   0.101E-06 0.127E-05 -.650E-05
 -----------------------------------------------------------------------------------------------
   0.530E+00 -.518E+01 -.145E+02   0.924E-13 0.133E-12 -.978E-11   -.531E+00 0.518E+01 0.145E+02   0.288E-05 -.245E-05 0.490E-04
 
 
 POSITION                                       TOTAL-FORCE (eV/Angst)
 -----------------------------------------------------------------------------------
      3.88552      0.00499     15.70559         0.000563      0.001003     -0.003467
      1.95216      3.36974     15.75501        -0.000344      0.000794     -0.003497
      0.00225      6.73026     15.70985         0.000155      0.001344     -0.003397
      7.77264      0.00580     15.74199         0.000540     -0.000780     -0.001012
      5.83298      3.36068     15.72700         0.000425      0.000317     -0.001810
      3.88357      6.73310     15.71049         0.001340      0.000901     -0.003208
     11.64819      0.00213     15.73534         0.000936      0.000492     -0.002000
     -1.94399      3.36820     15.74063        -0.000159      0.001433     -0.000498
      7.76779      6.73285     15.67468         0.000362     -0.001135     -0.004384
      1.94868      1.12411     17.17517         0.001131      0.003121     -0.003817
      0.00111      4.49767     17.18322        -0.001384      0.002139     -0.006180
     -1.95616      7.84809     17.14268        -0.000576     -0.003949     -0.004742
      5.81882      1.12813     17.18239         0.000004      0.001563     -0.007590
      3.89243      4.49502     17.17971         0.000806     -0.000786     -0.004109
      1.94688      7.83792     17.16989        -0.001653      0.001975     -0.003377
      9.72817      1.12662     17.18623        -0.001800      0.000953     -0.004229
      7.76347      4.50823     17.16270         0.002837      0.001118     -0.000972
      5.82991      7.83450     17.16048         0.000648     -0.000429     -0.007317
      0.01534      2.27152     14.27968        -0.001834     -0.000610      0.003264
     -1.92643      5.57696     14.27571        -0.000252     -0.000849     -0.002504
     -3.92247      9.00616     14.29076        -0.004337      0.001802     -0.000447
      3.88852      2.26188     14.27268         0.001461      0.000375      0.000904
      1.94778      5.58147     14.26920         0.001023     -0.000927     -0.001242
      0.01845      8.98868     14.30889         0.003140      0.004941      0.000060
      7.78508      2.23959     14.29698        -0.002916     -0.000122      0.000474
      5.80631      5.58980     14.26422         0.002775     -0.002102     -0.000768
      3.88019      8.98735     14.28507         0.001286     -0.001602     -0.001422
      2.00036      1.30779      8.57228         0.014081      0.001526      0.005279
      0.01981      4.32392      8.14265        -0.000850     -0.003334      0.012100
     -1.94886      7.90771      8.19442        -0.003200     -0.000462      0.001210
      5.82893      1.16327      8.59771        -0.003976     -0.000708      0.000181
      4.03359      4.38482      8.63279         0.007115      0.003582     -0.008372
      1.96498      7.76853      8.73582         0.003728      0.000501      0.002149
      9.92371      1.16288      8.61155        -0.010552      0.005851      0.003171
      7.63922      4.41888      8.54525         0.000051      0.000117      0.010168
      5.80996      7.66449      8.67209         0.001778     -0.004041      0.000826
      0.26338      2.88533     11.07300        -0.001134      0.001989     -0.002316
     -2.35123      5.91346     10.65914         0.001644      0.009261     -0.003364
     -3.87036      9.03771     10.72135         0.005440      0.002883      0.002247
      4.13810      2.74172     10.75237        -0.003898      0.006682     -0.002439
      1.16776      5.27271     10.71693         0.010330     -0.004245     -0.010962
     -0.06573      8.93271     10.72940        -0.002345     -0.001788     -0.002187
      7.94258      2.16976     10.64872        -0.000378     -0.003167      0.005968
      5.39097      5.14551     10.82126        -0.005310     -0.018597      0.000635
      3.91297      8.91201     10.73373         0.002966     -0.003330      0.000603
      2.11262      1.39864     11.00355        -0.006664      0.003315      0.005186
     -1.99183      7.94010     11.54898         0.002072      0.001066      0.007308
      5.89487      1.16073     11.11180        -0.006944      0.001899      0.002919
      1.84057      7.63961     11.20157        -0.000308      0.000151      0.007243
     10.01998      1.24514     11.06489         0.004322     -0.005573      0.001858
      7.65683      4.43700     11.14974        -0.001522     -0.001289      0.002307
      5.78825      7.59923     11.13778        -0.001059     -0.007441     -0.004919
      0.06958      2.16514      7.59766         0.001047     -0.008289      0.011026
     -1.91492      5.59090      8.33307        -0.002654     -0.005678     -0.002536
     -3.92197      9.00010      8.26636        -0.005636     -0.002034      0.011500
      3.96769      2.24056      7.79451         0.007052      0.010127      0.002629
      1.98416      5.48449      8.31151        -0.003878      0.002115      0.007476
      0.03947      8.94710      8.14558        -0.003252      0.005384     -0.003718
      7.86369      2.18438      8.06643         0.000210     -0.001221      0.003255
      5.82649      5.56262      7.75842        -0.002483     -0.003275      0.001191
      3.89263      8.93735      8.21895         0.000030      0.007044     -0.000336
 -----------------------------------------------------------------------------------
    total drift:                               -0.000591      0.000076     -0.000408


--------------------------------------------------------------------------------------------------------



  FREE ENERGIE OF THE ION-ELECTRON SYSTEM (eV)
  ---------------------------------------------------
  free  energy   TOTEN  =      -183.88059788 eV

  energy  without entropy=     -183.88059788  energy(sigma->0) =     -183.88059788
 


--------------------------------------------------------------------------------------------------------


    POTLOK:  cpu time      0.7518: real time      0.7556


--------------------------------------------------------------------------------------------------------


 writing wavefunctions
     LOOP+:  cpu time   4167.6064: real time   4197.4318
    4ORBIT:  cpu time      0.0000: real time      0.0000



 total charge

# of ion       s       p       d       tot
------------------------------------------
    1        0.324   0.225   9.618  10.167
    2        0.325   0.228   9.619  10.172
    3        0.324   0.225   9.618  10.167
    4        0.325   0.227   9.618  10.171
    5        0.325   0.227   9.618  10.170
    6        0.324   0.226   9.618  10.169
    7        0.325   0.227   9.618  10.171
    8        0.325   0.228   9.618  10.171
    9        0.323   0.224   9.618  10.164
   10        1.603   3.503   0.000   5.106
   11        1.603   3.503   0.000   5.106
   12        1.603   3.503   0.000   5.106
   13        1.603   3.502   0.000   5.106
   14        1.603   3.503   0.000   5.106
   15        1.603   3.503   0.000   5.106
   16        1.603   3.502   0.000   5.105
   17        1.603   3.503   0.000   5.106
   18        1.603   3.503   0.000   5.106
   19        1.604   3.504   0.000   5.108
   20        1.605   3.503   0.000   5.108
   21        1.605   3.503   0.000   5.108
   22        1.604   3.503   0.000   5.107
   23        1.604   3.503   0.000   5.107
   24        1.605   3.503   0.000   5.108
   25        1.604   3.503   0.000   5.107
   26        1.604   3.503   0.000   5.107
   27        1.604   3.503   0.000   5.107
   28        0.513   0.445   9.800  10.759
   29        0.553   0.442   9.789  10.783
   30        0.550   0.437   9.793  10.781
   31        0.514   0.452   9.803  10.768
   32        0.535   0.473   9.777  10.784
   33        0.512   0.461   9.807  10.780
   34        0.511   0.450   9.804  10.765
   35        0.521   0.440   9.799  10.760
   36        0.514   0.454   9.803  10.772
   37        0.578   0.294   9.758  10.630
   38        0.555   0.422   9.791  10.768
   39        0.495   0.383   9.797  10.675
   40        0.554   0.331   9.762  10.647
   41        0.602   0.262   9.751  10.616
   42        0.510   0.430   9.799  10.739
   43        0.514   0.446   9.803  10.763
   44        0.571   0.304   9.759  10.635
   45        0.493   0.382   9.800  10.675
   46        1.329   2.377   0.000   3.706
   47        1.332   2.395   0.000   3.727
   48        1.326   2.399   0.000   3.725
   49        1.331   2.372   0.000   3.703
   50        1.327   2.380   0.000   3.707
   51        1.328   2.403   0.000   3.731
   52        1.330   2.375   0.000   3.705
   53        1.329   2.395   0.000   3.723
   54        1.321   2.412   0.000   3.733
   55        1.324   2.411   0.000   3.734
   56        1.331   2.389   0.000   3.720
   57        1.323   2.412   0.000   3.735
   58        1.322   2.416   0.000   3.739
   59        1.326   2.406   0.000   3.732
   60        1.332   2.386   0.000   3.718
   61        1.325   2.408   0.000   3.734
--------------------------------------------------
tot         62.622 110.732 262.759 436.112
 

 total amount of memory used by VASP MPI-rank0   424580. kBytes
=======================================================================

   base      :      30000. kBytes
   nonl-proj :      53001. kBytes
   fftplans  :      79974. kBytes
   grid      :      45515. kBytes
   one-center:         93. kBytes
   wavefun   :     215997. kBytes
 
  
  
 General timing and accounting informations for this job:
 ========================================================
  
                  Total CPU time used (sec):     4223.245
                            User time (sec):     4210.184
                          System time (sec):       13.060
                         Elapsed time (sec):     4253.995
  
                   Maximum memory used (kb):      776204.
                   Average memory used (kb):          N/A
  
                          Minor page faults:       220525
                          Major page faults:           17
                 Voluntary context switches:          912
