 running   24 mpi-ranks, with    1 threads/rank, on    1 nodes
 distrk:  each k-point on   24 cores,    1 groups
 distr:  one band on   12 cores,    2 groups
 vasp.6.4.0 14Feb23 (build Dec 31 2025 13:57:05) complex                        
  
 POSCAR found type information on POSCAR CdClZnS 
 POSCAR found :  4 types and      62 ions
 Reading from existing POTCAR
 scaLAPACK will be used
 Reading from existing POTCAR
 -----------------------------------------------------------------------------
|                                                                             |
|               ----> ADVICE to this user running VASP <----                  |
|                                                                             |
|     You have a (more or less) 'large supercell' and for larger cells it     |
|     might be more efficient to use real-space projection operators.         |
|     Therefore, try LREAL= Auto in the INCAR file.                           |
|     Mind: For very accurate calculation, you might also keep the            |
|     reciprocal projection scheme (i.e. LREAL=.FALSE.).                      |
|                                                                             |
 -----------------------------------------------------------------------------

 LDA part: xc-table for Pade appr. of Perdew
 POSCAR, INCAR and KPOINTS ok, starting setup
 FFT: planning ... GRIDC
 FFT: planning ... GRID_SOFT
 FFT: planning ... GRID
 WAVECAR not read
 WARNING: random wavefunctions but no delay for mixing, default for NELMDL
 entering main loop
       N       E                     dE             d eps       ncg     rms          rms(c)
DAV:   1     0.454911655950E+04    0.45491E+04   -0.22798E+05  8744   0.144E+03
DAV:   2     0.502934178056E+03   -0.40462E+04   -0.38661E+04  9936   0.349E+02
DAV:   3    -0.158097597215E+03   -0.66103E+03   -0.65544E+03  9896   0.140E+02
DAV:   4    -0.193127450000E+03   -0.35030E+02   -0.34771E+02  9792   0.323E+01
DAV:   5    -0.194161286007E+03   -0.10338E+01   -0.10325E+01 10088   0.546E+00    0.377E+01
DAV:   6    -0.179724212801E+03    0.14437E+02   -0.27732E+01 12080   0.382E+01    0.301E+01
DAV:   7    -0.180623881170E+03   -0.89967E+00   -0.37390E+01  9456   0.101E+01    0.115E+01
DAV:   8    -0.179792190677E+03    0.83169E+00   -0.48490E+00 10552   0.869E+00    0.310E+00
DAV:   9    -0.179784770797E+03    0.74199E-02   -0.57024E-01 10872   0.353E+00    0.907E-01
DAV:  10    -0.179788448499E+03   -0.36777E-02   -0.87539E-02 10448   0.146E+00    0.698E-01
DAV:  11    -0.179790915098E+03   -0.24666E-02   -0.19758E-02 10824   0.665E-01    0.509E-01
DAV:  12    -0.179793032834E+03   -0.21177E-02   -0.61434E-03 10872   0.668E-01    0.208E-01
DAV:  13    -0.179794072445E+03   -0.10396E-02   -0.43360E-03 10368   0.299E-01    0.906E-02
DAV:  14    -0.179794745369E+03   -0.67292E-03   -0.16672E-03 10256   0.144E-01    0.634E-02
DAV:  15    -0.179795441218E+03   -0.69585E-03   -0.47805E-04  9912   0.751E-02    0.292E-02
DAV:  16    -0.179795962208E+03   -0.52099E-03   -0.22238E-04 10304   0.618E-02    0.191E-02
DAV:  17    -0.179796180249E+03   -0.21804E-03   -0.93082E-05 10144   0.383E-02    0.213E-02
DAV:  18    -0.179796551140E+03   -0.37089E-03   -0.42508E-05  9808   0.248E-02    0.102E-02
DAV:  19    -0.179796768894E+03   -0.21775E-03   -0.34044E-05 10016   0.186E-02    0.833E-03
DAV:  20    -0.179796860856E+03   -0.91962E-04   -0.72341E-06 10064   0.123E-02    0.464E-03
DAV:  21    -0.179797028956E+03   -0.16810E-03   -0.18944E-05  9408   0.626E-03    0.524E-03
DAV:  22    -0.179797057507E+03   -0.28550E-04   -0.17949E-06 10592   0.487E-03    0.448E-03
DAV:  23    -0.179797078012E+03   -0.20505E-04   -0.62659E-07  9784   0.314E-03    0.311E-03
DAV:  24    -0.179797095774E+03   -0.17762E-04   -0.82912E-07  9928   0.304E-03    0.138E-03
DAV:  25    -0.179797100169E+03   -0.43954E-05   -0.40141E-07  9496   0.141E-03    0.160E-03
DAV:  26    -0.179797101771E+03   -0.16018E-05   -0.80167E-08  9256   0.120E-03    0.115E-03
DAV:  27    -0.179797102984E+03   -0.12137E-05   -0.53699E-08  8488   0.721E-04    0.714E-04
DAV:  28    -0.179797104179E+03   -0.11940E-05   -0.35998E-08  6928   0.486E-04    0.639E-04
DAV:  29    -0.179797104925E+03   -0.74619E-06   -0.48332E-08  7112   0.486E-04    0.593E-04
DAV:  30    -0.179797105049E+03   -0.12390E-06   -0.45140E-09  6304   0.221E-04    0.551E-04
DAV:  31    -0.179797105169E+03   -0.12011E-06   -0.16737E-08  6480   0.217E-04    0.554E-04
DAV:  32    -0.179797105111E+03    0.57946E-07   -0.65322E-09  6192   0.224E-04    0.535E-04
DAV:  33    -0.179797105077E+03    0.33338E-07   -0.13504E-09  6232   0.978E-05    0.531E-04
DAV:  34    -0.179797105074E+03    0.36744E-08    0.15341E-10  5576   0.784E-05
   1 F= -.19024211E+03 E0= -.19024211E+03  d E =-.190242E+03
 curvature:   0.00 expect dE= 0.000E+00 dE for cont linesearch  0.000E+00
 trial: gam= 0.00000 g(F)=  0.167E+00 g(S)=  0.000E+00 ort = 0.000E+00 (trialstep = 0.100E+01)
 search vector abs. value=  0.167E+00
 bond charge predicted
       N       E                     dE             d eps       ncg     rms          rms(c)
DAV:   1    -0.179934750777E+03   -0.13765E+00   -0.39577E+01  8788   0.885E+00    0.876E-01
DAV:   2    -0.179952192339E+03   -0.17442E-01   -0.19993E-01 10304   0.100E+00    0.389E-01
DAV:   3    -0.179951964130E+03    0.22821E-03   -0.12376E-02  9824   0.501E-01    0.271E-01
DAV:   4    -0.179951671210E+03    0.29292E-03   -0.15783E-03 11208   0.376E-01    0.158E-01
DAV:   5    -0.179951594813E+03    0.76397E-04   -0.10399E-03 10920   0.972E-02    0.540E-02
DAV:   6    -0.179951636221E+03   -0.41407E-04   -0.58005E-04 10520   0.929E-02    0.476E-02
DAV:   7    -0.179951640471E+03   -0.42505E-05   -0.52926E-05  9472   0.268E-02    0.427E-02
DAV:   8    -0.179951642543E+03   -0.20722E-05   -0.12975E-05 10520   0.354E-02    0.319E-02
DAV:   9    -0.179951649576E+03   -0.70330E-05   -0.16222E-05 10984   0.280E-02    0.157E-02
DAV:  10    -0.179951651316E+03   -0.17394E-05   -0.10285E-05 10720   0.186E-02    0.116E-02
DAV:  11    -0.179951652225E+03   -0.90923E-06   -0.22512E-06 10040   0.456E-03    0.891E-03
DAV:  12    -0.179951653521E+03   -0.12957E-05   -0.53049E-07 11560   0.867E-03    0.462E-03
DAV:  13    -0.179951655882E+03   -0.23608E-05   -0.81461E-07 10344   0.860E-03    0.182E-03
DAV:  14    -0.179951656333E+03   -0.45150E-06   -0.85709E-07  9248   0.233E-03    0.201E-03
DAV:  15    -0.179951656773E+03   -0.43981E-06   -0.21761E-08  6544   0.135E-03    0.130E-03
DAV:  16    -0.179951658014E+03   -0.12414E-05   -0.15067E-07  9808   0.214E-03    0.127E-03
DAV:  17    -0.179951658428E+03   -0.41368E-06   -0.95275E-08  9144   0.205E-03    0.856E-04
DAV:  18    -0.179951658669E+03   -0.24059E-06   -0.17351E-08  6528   0.612E-04    0.699E-04
DAV:  19    -0.179951658995E+03   -0.32658E-06   -0.14425E-08  6264   0.625E-04    0.627E-04
DAV:  20    -0.179951659308E+03   -0.31296E-06   -0.15146E-08  6328   0.818E-04    0.569E-04
DAV:  21    -0.179951659491E+03   -0.18234E-06   -0.81420E-09  6296   0.219E-04    0.595E-04
DAV:  22    -0.179951659570E+03   -0.79475E-07   -0.19801E-09  6048   0.130E-04    0.576E-04
DAV:  23    -0.179951659646E+03   -0.76318E-07   -0.28519E-09  5984   0.110E-04    0.559E-04
DAV:  24    -0.179951659681E+03   -0.35019E-07   -0.10097E-09  6016   0.127E-04    0.562E-04
DAV:  25    -0.179951659689E+03   -0.75088E-08    0.12872E-10  5944   0.657E-05
   2 F= -.19039436E+03 E0= -.19039436E+03  d E =-.152244E+00
 ZBRENT: can't locate minimum, use default step
 trial-energy change:   -0.152244  1 .order   -0.152059   -0.167082   -0.137036
 step:   4.0000(harm=  5.5608)  dis= 0.18271  next Energy=  -190.706668 (dE=-0.465E+00)
 bond charge predicted
       N       E                     dE             d eps       ncg     rms          rms(c)
DAV:   1    -0.179871127601E+03    0.80532E-01   -0.39545E+02  8764   0.296E+01    0.267E+00
DAV:   2    -0.180196596667E+03   -0.32547E+00   -0.36959E+00 11128   0.612E+00    0.156E+00
DAV:   3    -0.180215434647E+03   -0.18838E-01   -0.53715E-01  9848   0.397E+00    0.100E+00
DAV:   4    -0.180214336650E+03    0.10980E-02   -0.41143E-02 11144   0.101E+00    0.652E-01
DAV:   5    -0.180213196795E+03    0.11399E-02   -0.19810E-02 11008   0.446E-01    0.269E-01
DAV:   6    -0.180213410378E+03   -0.21358E-03   -0.70361E-03 10584   0.438E-01    0.159E-01
DAV:   7    -0.180213439356E+03   -0.28978E-04   -0.10199E-03 10464   0.215E-01    0.114E-01
DAV:   8    -0.180213508942E+03   -0.69586E-04   -0.61826E-04  9464   0.545E-02    0.103E-01
DAV:   9    -0.180213512963E+03   -0.40202E-05   -0.18699E-04 10480   0.127E-01    0.380E-02
DAV:  10    -0.180213539730E+03   -0.26767E-04   -0.10446E-04 11504   0.581E-02    0.250E-02
DAV:  11    -0.180213541844E+03   -0.21144E-05   -0.41676E-05 10576   0.314E-02    0.172E-02
DAV:  12    -0.180213551071E+03   -0.92262E-05   -0.81575E-06 10880   0.136E-02    0.807E-03
DAV:  13    -0.180213562444E+03   -0.11374E-04   -0.71150E-06  9472   0.100E-02    0.597E-03
DAV:  14    -0.180213567452E+03   -0.50081E-05   -0.18193E-06 10216   0.648E-03    0.419E-03
DAV:  15    -0.180213573377E+03   -0.59245E-05   -0.82964E-07  9632   0.447E-03    0.256E-03
DAV:  16    -0.180213577519E+03   -0.41427E-05   -0.50263E-07  9704   0.316E-03    0.124E-03
DAV:  17    -0.180213579640E+03   -0.21202E-05   -0.17952E-07  9240   0.155E-03    0.107E-03
DAV:  18    -0.180213581897E+03   -0.22575E-05   -0.68353E-08  8560   0.908E-04    0.723E-04
DAV:  19    -0.180213585613E+03   -0.37158E-05   -0.14621E-07  7216   0.851E-04    0.673E-04
DAV:  20    -0.180213587014E+03   -0.14009E-05   -0.40392E-08  7408   0.520E-04    0.723E-04
DAV:  21    -0.180213588226E+03   -0.12119E-05   -0.33793E-08  7488   0.993E-04    0.629E-04
DAV:  22    -0.180213589487E+03   -0.12611E-05   -0.38911E-08  7040   0.323E-04    0.695E-04
DAV:  23    -0.180213590085E+03   -0.59825E-06   -0.11827E-08  6408   0.492E-04    0.585E-04
DAV:  24    -0.180213590376E+03   -0.29043E-06   -0.50785E-09  6152   0.134E-04    0.575E-04
DAV:  25    -0.180213590522E+03   -0.14684E-06   -0.10024E-09  6072   0.148E-04    0.585E-04
DAV:  26    -0.180213590684E+03   -0.16118E-06   -0.10184E-09  5992   0.168E-04    0.578E-04
DAV:  27    -0.180213590759E+03   -0.75233E-07   -0.32101E-10  6024   0.747E-05    0.574E-04
DAV:  28    -0.180213590773E+03   -0.13744E-07    0.27714E-10  5776   0.797E-05    0.571E-04
DAV:  29    -0.180213590795E+03   -0.22643E-07    0.38413E-10  5680   0.338E-05    0.572E-04
DAV:  30    -0.180213590826E+03   -0.30632E-07    0.52879E-10  5792   0.311E-05    0.571E-04
DAV:  31    -0.180213590841E+03   -0.14923E-07    0.60629E-10  5544   0.311E-05    0.571E-04
DAV:  32    -0.180213590846E+03   -0.52605E-08    0.63023E-10  5440   0.230E-05
   3 F= -.19064725E+03 E0= -.19064725E+03  d E =-.405135E+00
 curvature:  -2.45 expect dE=-0.211E+00 dE for cont linesearch -0.972E-02
 ZBRENT: extrapolating
 opt :   4.6931  next Energy=  -190.656160 (dE=-0.414E+00)
 bond charge predicted
       N       E                     dE             d eps       ncg     rms          rms(c)
DAV:   1    -0.180216620891E+03   -0.30301E-02   -0.18925E+01  8800   0.617E+00    0.559E-01
DAV:   2    -0.180223442647E+03   -0.68218E-02   -0.80222E-02 10368   0.721E-01    0.225E-01
DAV:   3    -0.180223924391E+03   -0.48174E-03   -0.11034E-02  9880   0.406E-01    0.193E-01
DAV:   4    -0.180223784334E+03    0.14006E-03   -0.79447E-04 11320   0.249E-01    0.123E-01
DAV:   5    -0.180223714986E+03    0.69349E-04   -0.37891E-04 13552   0.137E-01    0.537E-02
DAV:   6    -0.180223729937E+03   -0.14951E-04   -0.33898E-04 10616   0.528E-02    0.323E-02
DAV:   7    -0.180223739177E+03   -0.92403E-05   -0.13797E-04 10152   0.575E-02    0.226E-02
DAV:   8    -0.180223740019E+03   -0.84211E-06   -0.87950E-06 10408   0.214E-02    0.172E-02
DAV:   9    -0.180223741657E+03   -0.16377E-05   -0.49630E-06 10832   0.131E-02    0.833E-03
DAV:  10    -0.180223742976E+03   -0.13191E-05   -0.31614E-06 10024   0.766E-03    0.810E-03
DAV:  11    -0.180223743436E+03   -0.45963E-06   -0.11386E-06  9280   0.247E-03    0.744E-03
DAV:  12    -0.180223743767E+03   -0.33078E-06   -0.33036E-07  9784   0.592E-03    0.434E-03
DAV:  13    -0.180223744629E+03   -0.86264E-06   -0.37980E-07 10400   0.598E-03    0.117E-03
DAV:  14    -0.180223745225E+03   -0.59584E-06   -0.31291E-07 11016   0.221E-03    0.282E-03
DAV:  15    -0.180223745322E+03   -0.96421E-07   -0.14266E-07  8664   0.328E-03    0.146E-03
DAV:  16    -0.180223745631E+03   -0.30975E-06   -0.55011E-08  8920   0.232E-03    0.626E-04
DAV:  17    -0.180223745886E+03   -0.25482E-06   -0.32543E-08  8152   0.573E-04    0.612E-04
DAV:  18    -0.180223746004E+03   -0.11742E-06   -0.28074E-09  6120   0.397E-04    0.682E-04
DAV:  19    -0.180223746211E+03   -0.20761E-06   -0.67059E-09  5952   0.413E-04    0.608E-04
DAV:  20    -0.180223746391E+03   -0.18020E-06   -0.43152E-09  6208   0.324E-04    0.579E-04
DAV:  21    -0.180223746451E+03   -0.59161E-07   -0.75484E-10  6048   0.190E-04    0.596E-04
DAV:  22    -0.180223746483E+03   -0.32189E-07   -0.53821E-10  5816   0.159E-04    0.582E-04
DAV:  23    -0.180223746573E+03   -0.89807E-07   -0.98636E-10  5816   0.758E-05    0.579E-04
DAV:  24    -0.180223746626E+03   -0.53318E-07   -0.26259E-10  6048   0.287E-04    0.572E-04
DAV:  25    -0.180223746658E+03   -0.32051E-07   -0.49738E-10  5944   0.597E-05    0.570E-04
DAV:  26    -0.180223746662E+03   -0.39436E-08    0.43533E-10  5608   0.750E-05
   4 F= -.19065434E+03 E0= -.19065434E+03  d E =-.412231E+00
 curvature:  -2.25 expect dE=-0.245E+00 dE for cont linesearch -0.423E-03
 trial: gam= 0.68401 g(F)=  0.109E+00 g(S)=  0.000E+00 ort =-0.561E-02 (trialstep = 0.162E+01)
 search vector abs. value=  0.179E+00
 bond charge predicted
       N       E                     dE             d eps       ncg     rms          rms(c)
DAV:   1    -0.180241688658E+03   -0.17942E-01   -0.62848E+01  8632   0.117E+01    0.255E+00
DAV:   2    -0.180348470283E+03   -0.10678E+00   -0.11861E+00  9928   0.201E+00    0.107E+00
DAV:   3    -0.180346176210E+03    0.22941E-02   -0.45591E-02  9920   0.917E-01    0.829E-01
DAV:   4    -0.180344372540E+03    0.18037E-02   -0.74217E-03 11240   0.589E-01    0.625E-01
DAV:   5    -0.180343569340E+03    0.80320E-03   -0.63778E-03  9592   0.178E-01    0.279E-01
DAV:   6    -0.180343679423E+03   -0.11008E-03   -0.17533E-03 11104   0.183E-01    0.820E-02
DAV:   7    -0.180343688932E+03   -0.95094E-05   -0.29107E-04 10840   0.950E-02    0.653E-02
DAV:   8    -0.180343686212E+03    0.27204E-05   -0.12686E-04 10912   0.548E-02    0.431E-02
DAV:   9    -0.180343703686E+03   -0.17474E-04   -0.92263E-05 10536   0.280E-02    0.208E-02
DAV:  10    -0.180343715131E+03   -0.11445E-04   -0.23784E-05  9616   0.159E-02    0.112E-02
DAV:  11    -0.180343728819E+03   -0.13688E-04   -0.29623E-06  9576   0.142E-02    0.642E-03
DAV:  12    -0.180343750799E+03   -0.21980E-04   -0.24416E-06 11016   0.823E-03    0.282E-03
DAV:  13    -0.180343757404E+03   -0.66047E-05   -0.12438E-06  9912   0.491E-03    0.170E-03
DAV:  14    -0.180343767870E+03   -0.10466E-04   -0.41672E-07  8800   0.260E-03    0.100E-03
DAV:  15    -0.180343779409E+03   -0.11539E-04   -0.65300E-07  8768   0.248E-03    0.126E-03
DAV:  16    -0.180343784601E+03   -0.51926E-05   -0.30966E-07  9104   0.236E-03    0.113E-03
DAV:  17    -0.180343786391E+03   -0.17900E-05   -0.51733E-08  8224   0.494E-04    0.866E-04
DAV:  18    -0.180343788649E+03   -0.22579E-05   -0.65483E-08  7088   0.645E-04    0.707E-04
DAV:  19    -0.180343790004E+03   -0.13544E-05   -0.42344E-08  6680   0.305E-04    0.657E-04
DAV:  20    -0.180343790401E+03   -0.39682E-06   -0.64694E-09  6400   0.328E-04    0.634E-04
DAV:  21    -0.180343790815E+03   -0.41482E-06   -0.66407E-09  6080   0.189E-04    0.630E-04
DAV:  22    -0.180343791002E+03   -0.18688E-06   -0.16277E-09  6096   0.123E-04    0.627E-04
DAV:  23    -0.180343791079E+03   -0.76761E-07   -0.20375E-10  6072   0.663E-05    0.627E-04
DAV:  24    -0.180343791134E+03   -0.55341E-07    0.19857E-10  5880   0.651E-05    0.625E-04
DAV:  25    -0.180343791164E+03   -0.29555E-07    0.40233E-10  5752   0.331E-05    0.625E-04
DAV:  26    -0.180343791179E+03   -0.15432E-07    0.53271E-10  5640   0.248E-05    0.625E-04
DAV:  27    -0.180343791190E+03   -0.11118E-07    0.56622E-10  5488   0.394E-05    0.625E-04
DAV:  28    -0.180343791199E+03   -0.86875E-08    0.57227E-10  5560   0.131E-05
   5 F= -.19076879E+03 E0= -.19076879E+03  d E =-.114447E+00
 trial-energy change:   -0.114447  1 .order   -0.113620   -0.169976   -0.057264
 step:   2.3946(harm=  2.4448)  dis= 0.09785  next Energy=  -190.782538 (dE=-0.128E+00)
 bond charge predicted
       N       E                     dE             d eps       ncg     rms          rms(c)
DAV:   1    -0.180337706196E+03    0.60850E-02   -0.14131E+01  8656   0.541E+00    0.117E+00
DAV:   2    -0.180361541554E+03   -0.23835E-01   -0.26504E-01  9928   0.939E-01    0.477E-01
DAV:   3    -0.180360923358E+03    0.61820E-03   -0.92490E-03  9840   0.391E-01    0.375E-01
DAV:   4    -0.180360523428E+03    0.39993E-03   -0.14945E-03 11512   0.260E-01    0.274E-01
DAV:   5    -0.180360324599E+03    0.19883E-03   -0.14350E-03  9640   0.923E-02    0.115E-01
DAV:   6    -0.180360360020E+03   -0.35421E-04   -0.43375E-04 11080   0.805E-02    0.377E-02
DAV:   7    -0.180360363057E+03   -0.30362E-05   -0.61591E-05 10608   0.517E-02    0.290E-02
DAV:   8    -0.180360362933E+03    0.12365E-06   -0.23270E-05 10776   0.229E-02    0.177E-02
DAV:   9    -0.180360368313E+03   -0.53802E-05   -0.19265E-05 10744   0.121E-02    0.785E-03
DAV:  10    -0.180360370493E+03   -0.21795E-05   -0.41635E-06  9144   0.640E-03    0.422E-03
DAV:  11    -0.180360374257E+03   -0.37643E-05   -0.47831E-07  9424   0.535E-03    0.289E-03
DAV:  12    -0.180360379601E+03   -0.53443E-05   -0.41283E-07 11136   0.266E-03    0.172E-03
DAV:  13    -0.180360383067E+03   -0.34655E-05   -0.20003E-07  8688   0.149E-03    0.129E-03
DAV:  14    -0.180360386458E+03   -0.33907E-05   -0.12590E-07  7768   0.113E-03    0.904E-04
DAV:  15    -0.180360389097E+03   -0.26392E-05   -0.98747E-08  7280   0.831E-04    0.750E-04
DAV:  16    -0.180360390491E+03   -0.13944E-05   -0.50183E-08  7520   0.413E-04    0.819E-04
DAV:  17    -0.180360391367E+03   -0.87594E-06   -0.21601E-08  6344   0.368E-04    0.752E-04
DAV:  18    -0.180360391969E+03   -0.60184E-06   -0.13867E-08  6248   0.179E-04    0.669E-04
DAV:  19    -0.180360392179E+03   -0.20989E-06   -0.26172E-09  6232   0.129E-04    0.648E-04
DAV:  20    -0.180360392334E+03   -0.15504E-06   -0.11635E-09  5864   0.943E-05    0.636E-04
DAV:  21    -0.180360392448E+03   -0.11410E-06   -0.92374E-10  5992   0.521E-05    0.636E-04
DAV:  22    -0.180360392500E+03   -0.51761E-07    0.94957E-11  6008   0.673E-05    0.635E-04
DAV:  23    -0.180360392535E+03   -0.35157E-07    0.34334E-10  5808   0.369E-05    0.634E-04
DAV:  24    -0.180360392561E+03   -0.25560E-07    0.41883E-10  5776   0.289E-05    0.634E-04
DAV:  25    -0.180360392574E+03   -0.13337E-07    0.53923E-10  5648   0.168E-05    0.634E-04
DAV:  26    -0.180360392578E+03   -0.45766E-08    0.61251E-10  5464   0.981E-06
   6 F= -.19078246E+03 E0= -.19078246E+03  d E =-.128113E+00
 curvature:  -2.08 expect dE=-0.768E-01 dE for cont linesearch -0.979E-06
 trial: gam= 0.09141 g(F)=  0.369E-01 g(S)=  0.000E+00 ort =-0.290E-03 (trialstep = 0.178E+01)
 search vector abs. value=  0.383E-01
 bond charge predicted
       N       E                     dE             d eps       ncg     rms          rms(c)
DAV:   1    -0.180370377850E+03   -0.99853E-02   -0.17975E+01  8632   0.669E+00    0.163E+00
DAV:   2    -0.180399404546E+03   -0.29027E-01   -0.32878E-01  9760   0.102E+00    0.548E-01
DAV:   3    -0.180398924251E+03    0.48029E-03   -0.13775E-02  9736   0.375E-01    0.394E-01
DAV:   4    -0.180398349636E+03    0.57462E-03   -0.25607E-03 11088   0.439E-01    0.247E-01
DAV:   5    -0.180398253586E+03    0.96049E-04   -0.12656E-03 11528   0.141E-01    0.107E-01
DAV:   6    -0.180398268455E+03   -0.14868E-04   -0.38274E-04  9720   0.571E-02    0.758E-02
DAV:   7    -0.180398262561E+03    0.58933E-05   -0.18719E-04 10768   0.554E-02    0.583E-02
DAV:   8    -0.180398260024E+03    0.25369E-05   -0.31410E-05 11568   0.253E-02    0.324E-02
DAV:   9    -0.180398261628E+03   -0.16036E-05   -0.10135E-05 11696   0.155E-02    0.208E-02
DAV:  10    -0.180398266037E+03   -0.44088E-05   -0.46686E-06 10272   0.896E-03    0.113E-02
DAV:  11    -0.180398272591E+03   -0.65547E-05   -0.25826E-06 10064   0.756E-03    0.656E-03
DAV:  12    -0.180398275131E+03   -0.25395E-05   -0.88148E-07  9488   0.318E-03    0.533E-03
DAV:  13    -0.180398278514E+03   -0.33831E-05   -0.18049E-07  9576   0.252E-03    0.321E-03
DAV:  14    -0.180398282924E+03   -0.44103E-05   -0.23701E-07  9136   0.126E-03    0.208E-03
DAV:  15    -0.180398284827E+03   -0.19027E-05   -0.15538E-07  9392   0.108E-03    0.258E-03
DAV:  16    -0.180398286647E+03   -0.18203E-05   -0.29460E-08  6360   0.434E-04    0.208E-03
DAV:  17    -0.180398289062E+03   -0.24148E-05   -0.90771E-08  7216   0.573E-04    0.807E-04
DAV:  18    -0.180398290223E+03   -0.11607E-05   -0.35972E-08  7336   0.458E-04    0.823E-04
DAV:  19    -0.180398290973E+03   -0.74961E-06   -0.12187E-08  6224   0.164E-04    0.678E-04
DAV:  20    -0.180398291661E+03   -0.68861E-06   -0.12691E-08  6232   0.191E-04    0.666E-04
DAV:  21    -0.180398292139E+03   -0.47751E-06   -0.97497E-09  6200   0.171E-04    0.669E-04
DAV:  22    -0.180398292214E+03   -0.75444E-07   -0.23959E-10  6232   0.105E-04    0.658E-04
DAV:  23    -0.180398292418E+03   -0.20407E-06   -0.21331E-09  5704   0.757E-05    0.653E-04
DAV:  24    -0.180398292532E+03   -0.11345E-06   -0.63716E-10  6072   0.664E-05    0.647E-04
DAV:  25    -0.180398292548E+03   -0.16102E-07    0.41326E-10  5848   0.365E-05    0.646E-04
DAV:  26    -0.180398292573E+03   -0.25779E-07    0.52423E-10  5640   0.220E-05    0.645E-04
DAV:  27    -0.180398292607E+03   -0.33848E-07    0.55418E-10  5720   0.186E-05    0.645E-04
DAV:  28    -0.180398292625E+03   -0.17200E-07    0.58239E-10  5624   0.132E-05    0.645E-04
DAV:  29    -0.180398292633E+03   -0.88694E-08    0.60541E-10  5432   0.105E-05
   7 F= -.19082215E+03 E0= -.19082215E+03  d E =-.396931E-01
 trial-energy change:   -0.039693  1 .order   -0.039561   -0.065457   -0.013664
 step:   2.2355(harm=  2.2444)  dis= 0.02338  next Energy=  -190.823920 (dE=-0.415E-01)
 bond charge predicted
       N       E                     dE             d eps       ncg     rms          rms(c)
DAV:   1    -0.180397745010E+03    0.54761E-03   -0.12027E+00  8632   0.173E+00    0.401E-01
DAV:   2    -0.180399718884E+03   -0.19739E-02   -0.22283E-02  9760   0.261E-01    0.146E-01
DAV:   3    -0.180399684718E+03    0.34167E-04   -0.89734E-04  9720   0.899E-02    0.104E-01
DAV:   4    -0.180399644962E+03    0.39756E-04   -0.16894E-04 11176   0.115E-01    0.626E-02
DAV:   5    -0.180399639592E+03    0.53694E-05   -0.84869E-05 11480   0.376E-02    0.291E-02
DAV:   6    -0.180399641401E+03   -0.18093E-05   -0.25027E-05  9688   0.151E-02    0.205E-02
DAV:   7    -0.180399640644E+03    0.75741E-06   -0.12589E-05 10584   0.149E-02    0.150E-02
DAV:   8    -0.180399640703E+03   -0.59379E-07   -0.23051E-06 11176   0.598E-03    0.826E-03
DAV:   9    -0.180399640923E+03   -0.21989E-06   -0.56424E-07 11064   0.380E-03    0.547E-03
DAV:  10    -0.180399641339E+03   -0.41526E-06   -0.27552E-07  9880   0.229E-03    0.333E-03
DAV:  11    -0.180399641955E+03   -0.61630E-06   -0.17517E-07  9712   0.183E-03    0.217E-03
DAV:  12    -0.180399642231E+03   -0.27569E-06   -0.51416E-08  8688   0.821E-04    0.144E-03
DAV:  13    -0.180399642576E+03   -0.34511E-06   -0.13440E-08  6072   0.648E-04    0.907E-04
DAV:  14    -0.180399642965E+03   -0.38978E-06   -0.17513E-08  6408   0.349E-04    0.798E-04
DAV:  15    -0.180399643134E+03   -0.16821E-06   -0.71069E-09  6096   0.277E-04    0.837E-04
DAV:  16    -0.180399643382E+03   -0.24794E-06   -0.46567E-09  5888   0.211E-04    0.796E-04
DAV:  17    -0.180399643607E+03   -0.22573E-06   -0.51094E-09  6120   0.141E-04    0.670E-04
DAV:  18    -0.180399643779E+03   -0.17117E-06   -0.25864E-09  5960   0.140E-04    0.665E-04
DAV:  19    -0.180399643882E+03   -0.10315E-06   -0.10121E-09  5968   0.784E-05    0.657E-04
DAV:  20    -0.180399643953E+03   -0.71159E-07   -0.46584E-10  5936   0.786E-05    0.651E-04
DAV:  21    -0.180399644014E+03   -0.60747E-07   -0.20799E-10  5888   0.421E-05    0.652E-04
DAV:  22    -0.180399644051E+03   -0.37260E-07    0.21060E-10  5848   0.333E-05    0.650E-04
DAV:  23    -0.180399644062E+03   -0.10870E-07    0.50260E-10  5784   0.256E-05    0.650E-04
DAV:  24    -0.180399644079E+03   -0.17579E-07    0.50260E-10  5568   0.214E-05    0.650E-04
DAV:  25    -0.180399644101E+03   -0.21784E-07    0.53161E-10  5744   0.187E-05    0.650E-04
DAV:  26    -0.180399644106E+03   -0.47439E-08    0.62331E-10  5520   0.116E-05
   8 F= -.19082393E+03 E0= -.19082393E+03  d E =-.414766E-01
 curvature:  -1.17 expect dE=-0.544E-02 dE for cont linesearch -0.919E-08
 trial: gam= 0.12569 g(F)=  0.467E-02 g(S)=  0.000E+00 ort = 0.174E-04 (trialstep = 0.187E+01)
 search vector abs. value=  0.528E-02
 bond charge predicted
       N       E                     dE             d eps       ncg     rms          rms(c)
DAV:   1    -0.180399593360E+03    0.50741E-04   -0.20496E+00  8632   0.225E+00    0.542E-01
DAV:   2    -0.180404338728E+03   -0.47454E-02   -0.53869E-02 10712   0.477E-01    0.240E-01
DAV:   3    -0.180404229902E+03    0.10883E-03   -0.20723E-03  9720   0.149E-01    0.179E-01
DAV:   4    -0.180404148222E+03    0.81680E-04   -0.22237E-04 11256   0.103E-01    0.128E-01
DAV:   5    -0.180404114718E+03    0.33504E-04   -0.14395E-04 11288   0.550E-02    0.800E-02
DAV:   6    -0.180404106556E+03    0.81612E-05   -0.11087E-04 11648   0.433E-02    0.321E-02
DAV:   7    -0.180404111153E+03   -0.45965E-05   -0.63530E-05  9504   0.187E-02    0.182E-02
DAV:   8    -0.180404110656E+03    0.49693E-06   -0.46680E-06 10896   0.161E-02    0.116E-02
DAV:   9    -0.180404110348E+03    0.30761E-06   -0.23787E-06  9304   0.387E-03    0.935E-03
DAV:  10    -0.180404110544E+03   -0.19588E-06   -0.81151E-07 10376   0.329E-03    0.538E-03
DAV:  11    -0.180404110755E+03   -0.21035E-06   -0.14066E-07 10192   0.206E-03    0.351E-03
DAV:  12    -0.180404110974E+03   -0.21936E-06   -0.45098E-08  8448   0.130E-03    0.217E-03
DAV:  13    -0.180404111363E+03   -0.38862E-06   -0.40266E-08  8144   0.219E-03    0.986E-04
DAV:  14    -0.180404111700E+03   -0.33758E-06   -0.71457E-08  9888   0.162E-03    0.108E-03
DAV:  15    -0.180404111842E+03   -0.14200E-06   -0.59956E-08  8672   0.861E-04    0.961E-04
DAV:  16    -0.180404111875E+03   -0.32611E-07   -0.40714E-09  5960   0.206E-04    0.966E-04
DAV:  17    -0.180404111929E+03   -0.53660E-07   -0.11554E-09  5760   0.405E-04    0.820E-04
DAV:  18    -0.180404112066E+03   -0.13730E-06   -0.76701E-09  5936   0.733E-04    0.662E-04
DAV:  19    -0.180404112133E+03   -0.66997E-07   -0.62223E-09  6056   0.145E-04    0.641E-04
DAV:  20    -0.180404112144E+03   -0.10936E-07   -0.73445E-10  6008   0.190E-04    0.635E-04
DAV:  21    -0.180404112166E+03   -0.21864E-07    0.19396E-11  5664   0.770E-05    0.636E-04
DAV:  22    -0.180404112200E+03   -0.34204E-07   -0.64715E-10  5888   0.620E-05    0.635E-04
DAV:  23    -0.180404112215E+03   -0.15360E-07   -0.28886E-10  6000   0.422E-05    0.634E-04
DAV:  24    -0.180404112217E+03   -0.19281E-08    0.47412E-10  5920   0.396E-05
   9 F= -.19083030E+03 E0= -.19083030E+03  d E =-.636256E-02
 trial-energy change:   -0.006363  1 .order   -0.006334   -0.008721   -0.003947
 step:   3.3183(harm=  3.4118)  dis= 0.01389  next Energy=  -190.831841 (dE=-0.791E-02)
 bond charge predicted
       N       E                     dE             d eps       ncg     rms          rms(c)
DAV:   1    -0.180401567066E+03    0.25451E-02   -0.12360E+00  8632   0.174E+00    0.420E-01
DAV:   2    -0.180404433300E+03   -0.28662E-02   -0.32537E-02 10688   0.372E-01    0.186E-01
DAV:   3    -0.180404368901E+03    0.64399E-04   -0.12661E-03  9744   0.117E-01    0.139E-01
DAV:   4    -0.180404320254E+03    0.48646E-04   -0.13508E-04 11280   0.801E-02    0.996E-02
DAV:   5    -0.180404300716E+03    0.19539E-04   -0.85522E-05 11240   0.432E-02    0.630E-02
DAV:   6    -0.180404295884E+03    0.48316E-05   -0.69569E-05 11744   0.342E-02    0.253E-02
DAV:   7    -0.180404298578E+03   -0.26940E-05   -0.38389E-05  9504   0.148E-02    0.144E-02
DAV:   8    -0.180404298351E+03    0.22670E-06   -0.29092E-06 10832   0.124E-02    0.901E-03
DAV:   9    -0.180404298189E+03    0.16230E-06   -0.15065E-06  9192   0.304E-03    0.718E-03
DAV:  10    -0.180404298339E+03   -0.14956E-06   -0.50606E-07 10320   0.265E-03    0.418E-03
DAV:  11    -0.180404298484E+03   -0.14560E-06   -0.81651E-08 10120   0.146E-03    0.280E-03
DAV:  12    -0.180404298632E+03   -0.14756E-06   -0.23581E-08  6760   0.955E-04    0.180E-03
DAV:  13    -0.180404298877E+03   -0.24558E-06   -0.24791E-08  7024   0.151E-03    0.876E-04
DAV:  14    -0.180404299108E+03   -0.23048E-06   -0.38215E-08  8168   0.138E-03    0.907E-04
DAV:  15    -0.180404299197E+03   -0.89043E-07   -0.40177E-08  8368   0.631E-04    0.821E-04
DAV:  16    -0.180404299216E+03   -0.19005E-07   -0.24086E-09  5968   0.142E-04    0.834E-04
DAV:  17    -0.180404299236E+03   -0.20154E-07   -0.22484E-11  5608   0.207E-04    0.774E-04
DAV:  18    -0.180404299331E+03   -0.95228E-07   -0.42695E-09  5728   0.577E-04    0.648E-04
DAV:  19    -0.180404299370E+03   -0.38570E-07   -0.42808E-09  6088   0.161E-04    0.632E-04
DAV:  20    -0.180404299372E+03   -0.24083E-08   -0.65058E-10  5864   0.167E-04
  10 F= -.19083192E+03 E0= -.19083192E+03  d E =-.798891E-02
 curvature:  -1.92 expect dE=-0.502E-02 dE for cont linesearch -0.485E-05
 trial: gam= 0.53580 g(F)=  0.261E-02 g(S)=  0.000E+00 ort = 0.115E-03 (trialstep = 0.216E+01)
 search vector abs. value=  0.425E-02
 bond charge predicted
       N       E                     dE             d eps       ncg     rms          rms(c)
DAV:   1    -0.180402233651E+03    0.20657E-02   -0.31072E+00  8664   0.277E+00    0.436E-01
DAV:   2    -0.180406140078E+03   -0.39064E-02   -0.43789E-02  9816   0.376E-01    0.207E-01
DAV:   3    -0.180406097324E+03    0.42755E-04   -0.15946E-03  9736   0.141E-01    0.159E-01
DAV:   4    -0.180406042437E+03    0.54886E-04   -0.18924E-04 11064   0.100E-01    0.114E-01
DAV:   5    -0.180406014307E+03    0.28131E-04   -0.14580E-04  9664   0.307E-02    0.629E-02
DAV:   6    -0.180406019592E+03   -0.52851E-05   -0.86932E-05  9848   0.220E-02    0.242E-02
DAV:   7    -0.180406019994E+03   -0.40219E-06   -0.16087E-05 10928   0.198E-02    0.163E-02
DAV:   8    -0.180406019593E+03    0.40094E-06   -0.69919E-06 10344   0.130E-02    0.931E-03
DAV:   9    -0.180406019819E+03   -0.22579E-06   -0.24866E-06 10712   0.476E-03    0.445E-03
DAV:  10    -0.180406020415E+03   -0.59614E-06   -0.81861E-07  9824   0.445E-03    0.199E-03
DAV:  11    -0.180406021063E+03   -0.64845E-06   -0.20516E-07  9456   0.234E-03    0.955E-04
DAV:  12    -0.180406021567E+03   -0.50336E-06   -0.53680E-08  8584   0.108E-03    0.112E-03
DAV:  13    -0.180406021996E+03   -0.42872E-06   -0.34163E-08  7544   0.544E-04    0.970E-04
DAV:  14    -0.180406022651E+03   -0.65529E-06   -0.29523E-08  6472   0.937E-04    0.741E-04
DAV:  15    -0.180406023002E+03   -0.35156E-06   -0.17941E-08  6568   0.407E-04    0.709E-04
DAV:  16    -0.180406023201E+03   -0.19854E-06   -0.62149E-09  6000   0.311E-04    0.678E-04
DAV:  17    -0.180406023350E+03   -0.14912E-06   -0.40572E-09  6016   0.224E-04    0.643E-04
DAV:  18    -0.180406023512E+03   -0.16243E-06   -0.63530E-09  5896   0.123E-04    0.640E-04
DAV:  19    -0.180406023597E+03   -0.84467E-07   -0.17090E-09  6064   0.119E-04    0.625E-04
DAV:  20    -0.180406023648E+03   -0.51485E-07   -0.10146E-09  5896   0.545E-05    0.612E-04
DAV:  21    -0.180406023672E+03   -0.24040E-07    0.19655E-11  6000   0.466E-05    0.609E-04
DAV:  22    -0.180406023697E+03   -0.24113E-07    0.24912E-10  5872   0.482E-05    0.607E-04
DAV:  23    -0.180406023720E+03   -0.23334E-07    0.34666E-10  5936   0.291E-05    0.607E-04
DAV:  24    -0.180406023734E+03   -0.13977E-07    0.51060E-10  5696   0.235E-05    0.606E-04
DAV:  25    -0.180406023739E+03   -0.50131E-08    0.59341E-10  5544   0.156E-05
  11 F= -.19083628E+03 E0= -.19083628E+03  d E =-.436100E-02
 trial-energy change:   -0.004361  1 .order   -0.004346   -0.005774   -0.002918
 step:   4.2346(harm=  4.3629)  dis= 0.02877  next Energy=  -190.837700 (dE=-0.578E-02)
 bond charge predicted
       N       E                     dE             d eps       ncg     rms          rms(c)
DAV:   1    -0.180401472100E+03    0.45516E-02   -0.28775E+00  8664   0.267E+00    0.420E-01
DAV:   2    -0.180405093746E+03   -0.36216E-02   -0.40589E-02  9816   0.363E-01    0.199E-01
DAV:   3    -0.180405054528E+03    0.39218E-04   -0.14892E-03  9760   0.137E-01    0.153E-01
DAV:   4    -0.180405004171E+03    0.50357E-04   -0.17476E-04 11112   0.956E-02    0.110E-01
DAV:   5    -0.180404978278E+03    0.25893E-04   -0.13216E-04  9680   0.296E-02    0.616E-02
DAV:   6    -0.180404982626E+03   -0.43482E-05   -0.80276E-05  9848   0.221E-02    0.239E-02
DAV:   7    -0.180404983273E+03   -0.64724E-06   -0.16792E-05 10792   0.185E-02    0.158E-02
DAV:   8    -0.180404982966E+03    0.30697E-06   -0.62942E-06 10344   0.121E-02    0.921E-03
DAV:   9    -0.180404983121E+03   -0.15461E-06   -0.21412E-06 10952   0.567E-03    0.462E-03
DAV:  10    -0.180404983720E+03   -0.59878E-06   -0.85793E-07  9584   0.389E-03    0.202E-03
DAV:  11    -0.180404984362E+03   -0.64192E-06   -0.22669E-07  9416   0.231E-03    0.956E-04
DAV:  12    -0.180404984821E+03   -0.45934E-06   -0.56825E-08  8368   0.116E-03    0.110E-03
DAV:  13    -0.180404985203E+03   -0.38173E-06   -0.29949E-08  7448   0.594E-04    0.970E-04
DAV:  14    -0.180404985867E+03   -0.66481E-06   -0.32168E-08  6584   0.932E-04    0.758E-04
DAV:  15    -0.180404986122E+03   -0.25454E-06   -0.13954E-08  6360   0.375E-04    0.688E-04
DAV:  16    -0.180404986327E+03   -0.20472E-06   -0.65176E-09  5952   0.287E-04    0.666E-04
DAV:  17    -0.180404986477E+03   -0.15061E-06   -0.50012E-09  6072   0.238E-04    0.628E-04
DAV:  18    -0.180404986608E+03   -0.13055E-06   -0.57027E-09  5872   0.132E-04    0.627E-04
DAV:  19    -0.180404986668E+03   -0.60623E-07   -0.14882E-09  6016   0.124E-04    0.611E-04
DAV:  20    -0.180404986702E+03   -0.33411E-07   -0.90372E-10  5912   0.532E-05    0.592E-04
DAV:  21    -0.180404986715E+03   -0.13591E-07    0.62576E-11  6000   0.540E-05    0.587E-04
DAV:  22    -0.180404986731E+03   -0.15993E-07    0.81438E-11  5816   0.434E-05    0.585E-04
DAV:  23    -0.180404986746E+03   -0.14094E-07    0.30053E-10  5968   0.287E-05    0.585E-04
DAV:  24    -0.180404986753E+03   -0.77052E-08    0.51531E-10  5752   0.234E-05
  12 F= -.19083776E+03 E0= -.19083776E+03  d E =-.584046E-02
 curvature:  -3.46 expect dE=-0.649E-02 dE for cont linesearch -0.246E-05
 trial: gam= 0.73631 g(F)=  0.188E-02 g(S)=  0.000E+00 ort = 0.551E-04 (trialstep = 0.257E+01)
 search vector abs. value=  0.426E-02
 bond charge predicted
       N       E                     dE             d eps       ncg     rms          rms(c)
DAV:   1    -0.180398976575E+03    0.60102E-02   -0.46679E+00  8632   0.345E+00    0.577E-01
DAV:   2    -0.180404709751E+03   -0.57332E-02   -0.64475E-02  9672   0.481E-01    0.246E-01
DAV:   3    -0.180404641086E+03    0.68665E-04   -0.27112E-03  9816   0.182E-01    0.190E-01
DAV:   4    -0.180404535508E+03    0.10558E-03   -0.41756E-04 11312   0.179E-01    0.128E-01
DAV:   5    -0.180404495758E+03    0.39750E-04   -0.24288E-04 10688   0.463E-02    0.655E-02
DAV:   6    -0.180404500387E+03   -0.46288E-05   -0.15787E-04 10200   0.320E-02    0.275E-02
DAV:   7    -0.180404501834E+03   -0.14479E-05   -0.41448E-05 10728   0.314E-02    0.211E-02
DAV:   8    -0.180404501252E+03    0.58253E-06   -0.66654E-06 10232   0.121E-02    0.136E-02
DAV:   9    -0.180404501552E+03   -0.29982E-06   -0.54216E-06 10792   0.125E-02    0.549E-03
DAV:  10    -0.180404502790E+03   -0.12383E-05   -0.26183E-06  9672   0.550E-03    0.273E-03
DAV:  11    -0.180404503456E+03   -0.66546E-06   -0.81172E-07  9768   0.379E-03    0.249E-03
DAV:  12    -0.180404503964E+03   -0.50897E-06   -0.11889E-07  8632   0.154E-03    0.172E-03
DAV:  13    -0.180404505661E+03   -0.16962E-05   -0.12293E-07  8752   0.268E-03    0.916E-04
DAV:  14    -0.180404506332E+03   -0.67097E-06   -0.94577E-08  8944   0.952E-04    0.695E-04
DAV:  15    -0.180404506878E+03   -0.54681E-06   -0.24623E-08  6680   0.452E-04    0.736E-04
DAV:  16    -0.180404507445E+03   -0.56633E-06   -0.18444E-08  6240   0.338E-04    0.634E-04
DAV:  17    -0.180404507928E+03   -0.48299E-06   -0.19328E-08  6416   0.348E-04    0.549E-04
DAV:  18    -0.180404508231E+03   -0.30331E-06   -0.13868E-08  6280   0.219E-04    0.540E-04
DAV:  19    -0.180404508367E+03   -0.13615E-06   -0.47449E-09  6208   0.152E-04    0.531E-04
DAV:  20    -0.180404508469E+03   -0.10149E-06   -0.29973E-09  5968   0.180E-04    0.512E-04
DAV:  21    -0.180404508526E+03   -0.57553E-07   -0.17217E-09  6096   0.120E-04    0.508E-04
DAV:  22    -0.180404508552E+03   -0.26019E-07   -0.12356E-10  6048   0.765E-05    0.505E-04
DAV:  23    -0.180404508568E+03   -0.16167E-07    0.20823E-10  5744   0.317E-05    0.505E-04
DAV:  24    -0.180404508580E+03   -0.12020E-07    0.11673E-10  5920   0.450E-05    0.504E-04
DAV:  25    -0.180404508585E+03   -0.41109E-08    0.40584E-10  5880   0.253E-05
  13 F= -.19084040E+03 E0= -.19084040E+03  d E =-.264307E-02
 trial-energy change:   -0.002643  1 .order   -0.002651   -0.004922   -0.000379
 step:   2.7802(harm=  2.7802)  dis= 0.01890  next Energy=  -190.840428 (dE=-0.267E-02)
 bond charge predicted
       N       E                     dE             d eps       ncg     rms          rms(c)
DAV:   1    -0.180404226330E+03    0.28225E-03   -0.32467E-02  8676   0.287E-01    0.486E-02
DAV:   2    -0.180404266434E+03   -0.40105E-04   -0.44718E-04  9608   0.397E-02    0.203E-02
DAV:   3    -0.180404266145E+03    0.28954E-06   -0.18510E-05  9760   0.145E-02    0.157E-02
DAV:   4    -0.180404265458E+03    0.68641E-06   -0.28688E-06 11112   0.152E-02    0.107E-02
DAV:   5    -0.180404265169E+03    0.28890E-06   -0.16261E-06 10656   0.373E-03    0.546E-03
DAV:   6    -0.180404265176E+03   -0.65047E-08   -0.10087E-06  9616   0.260E-03    0.234E-03
DAV:   7    -0.180404265190E+03   -0.14537E-07   -0.31221E-07 10128   0.268E-03    0.184E-03
DAV:   8    -0.180404265177E+03    0.13119E-07   -0.47543E-08  7848   0.103E-03    0.126E-03
DAV:   9    -0.180404265158E+03    0.18990E-07   -0.48906E-08  8640   0.104E-03    0.674E-04
DAV:  10    -0.180404265162E+03   -0.33979E-08   -0.18390E-08  6560   0.475E-04
  14 F= -.19084042E+03 E0= -.19084042E+03  d E =-.265826E-02
 curvature:  -3.09 expect dE=-0.211E-02 dE for cont linesearch -0.157E-08
 trial: gam= 0.36876 g(F)=  0.683E-03 g(S)=  0.000E+00 ort =-0.147E-05 (trialstep = 0.261E+01)
 search vector abs. value=  0.126E-02
 bond charge predicted
       N       E                     dE             d eps       ncg     rms          rms(c)
DAV:   1    -0.180402205849E+03    0.20593E-02   -0.14110E+00  8632   0.196E+00    0.284E-01
DAV:   2    -0.180403962958E+03   -0.17571E-02   -0.19872E-02  9736   0.269E-01    0.135E-01
DAV:   3    -0.180403938785E+03    0.24173E-04   -0.72688E-04  9808   0.986E-02    0.102E-01
DAV:   4    -0.180403909419E+03    0.29366E-04   -0.11810E-04 11208   0.895E-02    0.718E-02
DAV:   5    -0.180403900961E+03    0.84585E-05   -0.77153E-05  9864   0.224E-02    0.358E-02
DAV:   6    -0.180403903456E+03   -0.24946E-05   -0.37506E-05 10752   0.157E-02    0.159E-02
DAV:   7    -0.180403903080E+03    0.37599E-06   -0.88172E-06 10928   0.180E-02    0.131E-02
DAV:   8    -0.180403902494E+03    0.58583E-06   -0.19526E-06 12256   0.669E-03    0.839E-03
DAV:   9    -0.180403902225E+03    0.26833E-06   -0.18983E-06 11032   0.103E-02    0.341E-03
DAV:  10    -0.180403902452E+03   -0.22623E-06   -0.12733E-06  9064   0.262E-03    0.200E-03
DAV:  11    -0.180403902510E+03   -0.58499E-07   -0.28254E-07  9632   0.384E-03    0.128E-03
DAV:  12    -0.180403902533E+03   -0.22788E-07   -0.38555E-08  7880   0.420E-04    0.106E-03
DAV:  13    -0.180403902601E+03   -0.67637E-07   -0.57107E-09  5976   0.901E-04    0.766E-04
DAV:  14    -0.180403902727E+03   -0.12654E-06   -0.17604E-08  6408   0.942E-04    0.611E-04
DAV:  15    -0.180403902780E+03   -0.52547E-07   -0.12056E-08  6336   0.572E-04    0.508E-04
DAV:  16    -0.180403902815E+03   -0.35441E-07   -0.36506E-09  5976   0.274E-04    0.515E-04
DAV:  17    -0.180403902852E+03   -0.36503E-07   -0.27309E-09  6024   0.280E-04    0.477E-04
DAV:  18    -0.180403902878E+03   -0.26645E-07   -0.20940E-09  5904   0.147E-04    0.478E-04
DAV:  19    -0.180403902884E+03   -0.57917E-08   -0.46800E-10  6024   0.934E-05
  15 F= -.19084151E+03 E0= -.19084151E+03  d E =-.108773E-02
 trial-energy change:   -0.001088  1 .order   -0.001094   -0.001781   -0.000406
 step:   3.4069(harm=  3.3794)  dis= 0.01231  next Energy=  -190.841570 (dE=-0.115E-02)
 reached required accuracy - stopping structural energy minimisation
 writing wavefunctions
