 vasp.6.4.0 14Feb23 (build Dec 31 2025 13:57:05) complex                        
  
 executed on             LinuxIFC date 2026.06.24  01:19:22
 running   24 mpi-ranks, with    1 threads/rank, on    1 nodes
 distrk:  each k-point on   24 cores,    1 groups
 distr:  one band on NCORE=   1 cores,   24 groups


--------------------------------------------------------------------------------------------------------


 INCAR:
   ISTART = 1            (Read existing wavefunction, if there)
   ISPIN = 1            (Non-Spin polarised DFT)
   LREAL = .FALSE.       (Projection operators: automatic)
   ENCUT = 500        (Cut-off energy for plane wave basis set, in eV)
   LWAVE = .TRUE.        (Write WAVECAR or not)
   LCHARG = .TRUE.        (Write CHGCAR or not)
   ADDGRID = .TRUE.        (Increase grid, helps GGA convergence)
   LASPH = .TRUE.        (Give more accurate total energies and band structure calculations)
   PREC = Accurate      (Accurate strictly avoids any aliasing or wrap around errors)
   ISMEAR = 0            (gaussian smearing method)
   SIGMA = 0.05         (please check the width of the smearing)
   LORBIT = 11           (PAW radii for projected DOS)
   NEDOS = 2001         (DOSCAR points)
   NELM = 60           (Max electronic SCF steps)
   EDIFF = 1E-08        (SCF energy convergence, in eV)
   IVDW = 11           (DFT-D3 method of method with no damping)

 POTCAR:    PAW_PBE Zn 06Sep2000                  
 POTCAR:    PAW_PBE Zn 06Sep2000                  
   SHA256 =  501fddbd8274dd8e9725d4f3de27861d7f1e553a7e18441bc79fed8f346e7f23 Zn/POTCAR             
   COPYR  = (c) Copyright 06Sep2000 Georg Kresse                                                    
   COPYR  = This file is part of the software VASP. Any use, copying, and all other rights are regul
   COPYR  = If you do not have a valid VASP license, you may not use, copy or distribute this file. 
   VRHFIN =Zn: d10 p2                                                                               
   LEXCH  = PE                                                                                      
   EATOM  =  1748.8345 eV,  128.5357 Ry                                                             
                                                                                                    
   TITEL  = PAW_PBE Zn 06Sep2000                                                                    
   LULTRA =        F    use ultrasoft PP ?                                                          
   IUNSCR =        1    unscreen: 0-lin 1-nonlin 2-no                                               
   RPACOR =    2.000    partial core radius                                                         
   POMASS =   65.390; ZVAL   =   12.000    mass and valenz                                          
   RCORE  =    2.300    outmost cutoff radius                                                       
   RWIGS  =    2.400; RWIGS  =    1.270    wigner-seitz radius (au A)                               
   ENMAX  =  276.723; ENMIN  =  207.542 eV                                                          
   RCLOC  =    1.828    cutoff for local pot                                                        
   LCOR   =        T    correct aug charges                                                         
   LPAW   =        T    paw PP                                                                      
   EAUG   =  575.892                                                                                
   DEXC   =    0.000                                                                                
   RMAX   =    2.347    core radius for proj-oper                                                   
   RAUG   =    1.300    factor for augmentation sphere                                              
   RDEP   =    2.324    radius for radial grids                                                     
   RDEPT  =    1.788    core radius for aug-charge                                                  
                                                                                                    
   Atomic configuration                                                                             
    9 entries                                                                                       
     n  l   j            E        occ.                                                              
     1  0  0.50     -9524.6913   2.0000                                                             
     2  0  0.50     -1158.1882   2.0000                                                             
     2  1  1.50     -1003.8506   6.0000                                                             
     3  0  0.50      -129.2194   2.0000                                                             
     3  1  1.50       -83.3890   6.0000                                                             
     3  2  2.50       -10.1410  10.0000                                                             
     4  0  0.50        -5.9785   2.0000                                                             
     4  1  0.50        -4.0817   0.0000                                                             
     4  3  2.50        -1.3606   0.0000                                                             
   Description                                                                                      
     l       E           TYP  RCUT    TYP  RCUT                                                     
     2    -10.1410010     23  2.300                                                                 
     2    -11.5015836     23  2.300                                                                 
     0     -5.9785163     23  2.300                                                                 
     0      1.1858015     23  2.300                                                                 
     1     -2.7211652     23  2.300                                                                 
     1     13.2444212     23  2.300                                                                 
  local pseudopotential read in
  partial core-charges read in
  partial kinetic energy density read in
  atomic valenz-charges read in
  non local Contribution for L=           2  read in
    real space projection operators read in
  non local Contribution for L=           2  read in
    real space projection operators read in
  non local Contribution for L=           0  read in
    real space projection operators read in
  non local Contribution for L=           0  read in
    real space projection operators read in
  non local Contribution for L=           1  read in
    real space projection operators read in
  non local Contribution for L=           1  read in
    real space projection operators read in
    PAW grid and wavefunctions read in
 
   number of l-projection  operators is LMAX  =           6
   number of lm-projection operators is LMMAX =          18
 
  PAW_PBE Zn 06Sep2000                  :
 energy of atom  1       EATOM=-1748.8345
 kinetic energy error for atom=    0.0029 (will be added to EATOM!!)
 
 
 POSCAR: cif2pos.py
  positions in direct lattice
  velocities in cartesian coordinates
 exchange correlation table for  LEXCH =        8
   RHO(1)=    0.500       N(1)  =     2000
   RHO(2)=  100.500       N(2)  =     4000
 


--------------------------------------------------------------------------------------------------------


 ion  position               nearest neighbor table
   1  0.333  0.667  0.250-   2 2.89   2 2.89   2 2.89   2 2.89   2 2.89   2 2.89
   2  0.667  0.333  0.750-   1 2.89   1 2.89   1 2.89   1 2.89   1 2.89   1 2.89
 
  LATTYP: Found a hexagonal cell.
 ALAT       =     2.5959351201
 C/A-ratio  =     1.9055946205
  
  Lattice vectors:
  
 A1 = (   2.5959351201,   0.0000000000,   0.0000000000)
 A2 = (  -1.2979675600,   2.2481453113,   0.0000000000)
 A3 = (   0.0000000000,   0.0000000000,   4.9468000000)


Analysis of symmetry for initial positions (statically):
=====================================================================
 Subroutine PRICEL returns:
 Original cell was already a primitive cell.
 

 Routine SETGRP: Setting up the symmetry group for a 
 hexagonal supercell.


 Subroutine GETGRP returns: Found  8 space group operations
 (whereof  4 operations were pure point group operations)
 out of a pool of 24 trial point group operations.


The static configuration has the point symmetry C_2h.
 The point group associated with its full space group is D_2h.


Analysis of symmetry for dynamics (positions and initial velocities):
=====================================================================
 Subroutine PRICEL returns:
 Original cell was already a primitive cell.
 

 Routine SETGRP: Setting up the symmetry group for a 
 hexagonal supercell.


 Subroutine GETGRP returns: Found  8 space group operations
 (whereof  4 operations were pure point group operations)
 out of a pool of 24 trial point group operations.


The dynamic configuration has the point symmetry C_2h.
 The point group associated with its full space group is D_2h.


 Subroutine INISYM returns: Found  8 space group operations
 (whereof  4 operations are pure point group operations),
 and found     1 'primitive' translations


----------------------------------------------------------------------------------------

                                     Primitive cell                                     

  volume of cell :      28.8697

  direct lattice vectors                    reciprocal lattice vectors
     2.595935120  0.000000000  0.000000000     0.385217640  0.222405552  0.000000000
    -1.297967560  2.248145311  0.000000000     0.000000000  0.444811105  0.000000000
     0.000000000  0.000000000  4.946800000     0.000000000  0.000000000  0.202150885

  length of vectors
     2.595935120  2.595934731  4.946800000     0.444811038  0.444811105  0.202150885

  position of ions in fractional coordinates (direct lattice)
     0.333330046  0.666669954  0.250000000
     0.666669954  0.333330046  0.750000000

  ion indices of the primitive-cell ions
   primitive index   ion index
                 1           1
                 2           2

----------------------------------------------------------------------------------------

 
 
 KPOINTS: K-Spacing Value to Generate K-Mesh: 0.03

Automatic generation of k-mesh.
 Grid dimensions read from file:
 generate k-points for:   15   15    7

 Generating k-lattice:

  Cartesian coordinates                     Fractional coordinates (reciprocal lattice)
     0.025681176  0.014827037  0.000000000     0.066666667  0.000000000  0.000000000
     0.000000000  0.029654074  0.000000000     0.000000000  0.066666667  0.000000000
     0.000000000  0.000000000  0.028878698     0.000000000  0.000000000  0.142857143

  Length of vectors
     0.029654069  0.029654074  0.028878698

  Shift w.r.t. Gamma in fractional coordinates (k-lattice)
     0.000000000  0.000000000  0.000000000

 
 Subroutine IBZKPT returns following result:
 ===========================================
 
 Found    256 irreducible k-points:
 
 Following reciprocal coordinates:
            Coordinates               Weight
  0.000000  0.000000  0.000000      1.000000
  0.066667  0.000000  0.000000      4.000000
 -0.066667  0.066667  0.000000      2.000000
  0.133333  0.000000  0.000000      4.000000
 -0.133333  0.133333  0.000000      2.000000
  0.200000  0.000000  0.000000      4.000000
 -0.200000  0.200000  0.000000      2.000000
  0.266667  0.000000  0.000000      4.000000
 -0.266667  0.266667  0.000000      2.000000
  0.333333  0.000000  0.000000      4.000000
 -0.333333  0.333333  0.000000      2.000000
  0.400000  0.000000  0.000000      4.000000
 -0.400000  0.400000  0.000000      2.000000
  0.466667  0.000000  0.000000      4.000000
 -0.466667  0.466667  0.000000      2.000000
  0.066667  0.066667  0.000000      2.000000
 -0.066667  0.133333  0.000000      4.000000
  0.133333  0.066667  0.000000      4.000000
 -0.066667  0.200000  0.000000      4.000000
 -0.200000  0.133333  0.000000      4.000000
  0.200000  0.066667  0.000000      4.000000
 -0.066667  0.266667  0.000000      4.000000
 -0.266667  0.200000  0.000000      4.000000
  0.266667  0.066667  0.000000      4.000000
 -0.066667  0.333333  0.000000      4.000000
 -0.333333  0.266667  0.000000      4.000000
  0.333333  0.066667  0.000000      4.000000
 -0.066667  0.400000  0.000000      4.000000
 -0.400000  0.333333  0.000000      4.000000
  0.400000  0.066667  0.000000      4.000000
 -0.066667  0.466667  0.000000      4.000000
 -0.466667  0.400000  0.000000      4.000000
  0.466667  0.066667  0.000000      4.000000
  0.466667  0.466667  0.000000      2.000000
  0.133333  0.133333  0.000000      2.000000
 -0.133333  0.266667  0.000000      4.000000
  0.200000  0.133333  0.000000      4.000000
 -0.133333  0.333333  0.000000      4.000000
 -0.333333  0.200000  0.000000      4.000000
  0.266667  0.133333  0.000000      4.000000
 -0.133333  0.400000  0.000000      4.000000
 -0.400000  0.266667  0.000000      4.000000
  0.333333  0.133333  0.000000      4.000000
 -0.133333  0.466667  0.000000      4.000000
 -0.466667  0.333333  0.000000      4.000000
  0.400000  0.133333  0.000000      4.000000
 -0.133333 -0.466667  0.000000      4.000000
  0.466667  0.400000  0.000000      4.000000
  0.200000  0.200000  0.000000      2.000000
 -0.200000  0.400000  0.000000      4.000000
  0.266667  0.200000  0.000000      4.000000
 -0.200000  0.466667  0.000000      4.000000
 -0.466667  0.266667  0.000000      4.000000
  0.333333  0.200000  0.000000      4.000000
 -0.200000 -0.466667  0.000000      4.000000
  0.466667  0.333333  0.000000      4.000000
  0.400000  0.200000  0.000000      4.000000
  0.400000  0.400000  0.000000      2.000000
  0.266667  0.266667  0.000000      2.000000
 -0.266667 -0.466667  0.000000      4.000000
  0.333333  0.266667  0.000000      4.000000
 -0.266667 -0.400000  0.000000      4.000000
  0.400000  0.333333  0.000000      4.000000
  0.333333  0.333333  0.000000      2.000000
  0.000000  0.000000  0.142857      2.000000
  0.066667  0.000000  0.142857      8.000000
 -0.066667  0.066667  0.142857      4.000000
  0.133333  0.000000  0.142857      8.000000
 -0.133333  0.133333  0.142857      4.000000
  0.200000  0.000000  0.142857      8.000000
 -0.200000  0.200000  0.142857      4.000000
  0.266667  0.000000  0.142857      8.000000
 -0.266667  0.266667  0.142857      4.000000
  0.333333  0.000000  0.142857      8.000000
 -0.333333  0.333333  0.142857      4.000000
  0.400000  0.000000  0.142857      8.000000
 -0.400000  0.400000  0.142857      4.000000
  0.466667  0.000000  0.142857      8.000000
 -0.466667  0.466667  0.142857      4.000000
  0.066667  0.066667  0.142857      4.000000
 -0.066667  0.133333  0.142857      8.000000
  0.133333  0.066667  0.142857      8.000000
 -0.066667  0.200000  0.142857      8.000000
 -0.200000  0.133333  0.142857      8.000000
  0.200000  0.066667  0.142857      8.000000
 -0.066667  0.266667  0.142857      8.000000
 -0.266667  0.200000  0.142857      8.000000
  0.266667  0.066667  0.142857      8.000000
 -0.066667  0.333333  0.142857      8.000000
 -0.333333  0.266667  0.142857      8.000000
  0.333333  0.066667  0.142857      8.000000
 -0.066667  0.400000  0.142857      8.000000
 -0.400000  0.333333  0.142857      8.000000
  0.400000  0.066667  0.142857      8.000000
 -0.066667  0.466667  0.142857      8.000000
 -0.466667  0.400000  0.142857      8.000000
  0.466667  0.066667  0.142857      8.000000
  0.466667  0.466667  0.142857      4.000000
  0.133333  0.133333  0.142857      4.000000
 -0.133333  0.266667  0.142857      8.000000
  0.200000  0.133333  0.142857      8.000000
 -0.133333  0.333333  0.142857      8.000000
 -0.333333  0.200000  0.142857      8.000000
  0.266667  0.133333  0.142857      8.000000
 -0.133333  0.400000  0.142857      8.000000
 -0.400000  0.266667  0.142857      8.000000
  0.333333  0.133333  0.142857      8.000000
 -0.133333  0.466667  0.142857      8.000000
 -0.466667  0.333333  0.142857      8.000000
  0.400000  0.133333  0.142857      8.000000
 -0.133333 -0.466667  0.142857      8.000000
  0.466667  0.400000  0.142857      8.000000
  0.200000  0.200000  0.142857      4.000000
 -0.200000  0.400000  0.142857      8.000000
  0.266667  0.200000  0.142857      8.000000
 -0.200000  0.466667  0.142857      8.000000
 -0.466667  0.266667  0.142857      8.000000
  0.333333  0.200000  0.142857      8.000000
 -0.200000 -0.466667  0.142857      8.000000
  0.466667  0.333333  0.142857      8.000000
  0.400000  0.200000  0.142857      8.000000
  0.400000  0.400000  0.142857      4.000000
  0.266667  0.266667  0.142857      4.000000
 -0.266667 -0.466667  0.142857      8.000000
  0.333333  0.266667  0.142857      8.000000
 -0.266667 -0.400000  0.142857      8.000000
  0.400000  0.333333  0.142857      8.000000
  0.333333  0.333333  0.142857      4.000000
  0.000000  0.000000  0.285714      2.000000
  0.066667  0.000000  0.285714      8.000000
 -0.066667  0.066667  0.285714      4.000000
  0.133333  0.000000  0.285714      8.000000
 -0.133333  0.133333  0.285714      4.000000
  0.200000  0.000000  0.285714      8.000000
 -0.200000  0.200000  0.285714      4.000000
  0.266667  0.000000  0.285714      8.000000
 -0.266667  0.266667  0.285714      4.000000
  0.333333  0.000000  0.285714      8.000000
 -0.333333  0.333333  0.285714      4.000000
  0.400000  0.000000  0.285714      8.000000
 -0.400000  0.400000  0.285714      4.000000
  0.466667  0.000000  0.285714      8.000000
 -0.466667  0.466667  0.285714      4.000000
  0.066667  0.066667  0.285714      4.000000
 -0.066667  0.133333  0.285714      8.000000
  0.133333  0.066667  0.285714      8.000000
 -0.066667  0.200000  0.285714      8.000000
 -0.200000  0.133333  0.285714      8.000000
  0.200000  0.066667  0.285714      8.000000
 -0.066667  0.266667  0.285714      8.000000
 -0.266667  0.200000  0.285714      8.000000
  0.266667  0.066667  0.285714      8.000000
 -0.066667  0.333333  0.285714      8.000000
 -0.333333  0.266667  0.285714      8.000000
  0.333333  0.066667  0.285714      8.000000
 -0.066667  0.400000  0.285714      8.000000
 -0.400000  0.333333  0.285714      8.000000
  0.400000  0.066667  0.285714      8.000000
 -0.066667  0.466667  0.285714      8.000000
 -0.466667  0.400000  0.285714      8.000000
  0.466667  0.066667  0.285714      8.000000
  0.466667  0.466667  0.285714      4.000000
  0.133333  0.133333  0.285714      4.000000
 -0.133333  0.266667  0.285714      8.000000
  0.200000  0.133333  0.285714      8.000000
 -0.133333  0.333333  0.285714      8.000000
 -0.333333  0.200000  0.285714      8.000000
  0.266667  0.133333  0.285714      8.000000
 -0.133333  0.400000  0.285714      8.000000
 -0.400000  0.266667  0.285714      8.000000
  0.333333  0.133333  0.285714      8.000000
 -0.133333  0.466667  0.285714      8.000000
 -0.466667  0.333333  0.285714      8.000000
  0.400000  0.133333  0.285714      8.000000
 -0.133333 -0.466667  0.285714      8.000000
  0.466667  0.400000  0.285714      8.000000
  0.200000  0.200000  0.285714      4.000000
 -0.200000  0.400000  0.285714      8.000000
  0.266667  0.200000  0.285714      8.000000
 -0.200000  0.466667  0.285714      8.000000
 -0.466667  0.266667  0.285714      8.000000
  0.333333  0.200000  0.285714      8.000000
 -0.200000 -0.466667  0.285714      8.000000
  0.466667  0.333333  0.285714      8.000000
  0.400000  0.200000  0.285714      8.000000
  0.400000  0.400000  0.285714      4.000000
  0.266667  0.266667  0.285714      4.000000
 -0.266667 -0.466667  0.285714      8.000000
  0.333333  0.266667  0.285714      8.000000
 -0.266667 -0.400000  0.285714      8.000000
  0.400000  0.333333  0.285714      8.000000
  0.333333  0.333333  0.285714      4.000000
  0.000000  0.000000  0.428571      2.000000
  0.066667  0.000000  0.428571      8.000000
 -0.066667  0.066667  0.428571      4.000000
  0.133333  0.000000  0.428571      8.000000
 -0.133333  0.133333  0.428571      4.000000
  0.200000  0.000000  0.428571      8.000000
 -0.200000  0.200000  0.428571      4.000000
  0.266667  0.000000  0.428571      8.000000
 -0.266667  0.266667  0.428571      4.000000
  0.333333  0.000000  0.428571      8.000000
 -0.333333  0.333333  0.428571      4.000000
  0.400000  0.000000  0.428571      8.000000
 -0.400000  0.400000  0.428571      4.000000
  0.466667  0.000000  0.428571      8.000000
 -0.466667  0.466667  0.428571      4.000000
  0.066667  0.066667  0.428571      4.000000
 -0.066667  0.133333  0.428571      8.000000
  0.133333  0.066667  0.428571      8.000000
 -0.066667  0.200000  0.428571      8.000000
 -0.200000  0.133333  0.428571      8.000000
  0.200000  0.066667  0.428571      8.000000
 -0.066667  0.266667  0.428571      8.000000
 -0.266667  0.200000  0.428571      8.000000
  0.266667  0.066667  0.428571      8.000000
 -0.066667  0.333333  0.428571      8.000000
 -0.333333  0.266667  0.428571      8.000000
  0.333333  0.066667  0.428571      8.000000
 -0.066667  0.400000  0.428571      8.000000
 -0.400000  0.333333  0.428571      8.000000
  0.400000  0.066667  0.428571      8.000000
 -0.066667  0.466667  0.428571      8.000000
 -0.466667  0.400000  0.428571      8.000000
  0.466667  0.066667  0.428571      8.000000
  0.466667  0.466667  0.428571      4.000000
  0.133333  0.133333  0.428571      4.000000
 -0.133333  0.266667  0.428571      8.000000
  0.200000  0.133333  0.428571      8.000000
 -0.133333  0.333333  0.428571      8.000000
 -0.333333  0.200000  0.428571      8.000000
  0.266667  0.133333  0.428571      8.000000
 -0.133333  0.400000  0.428571      8.000000
 -0.400000  0.266667  0.428571      8.000000
  0.333333  0.133333  0.428571      8.000000
 -0.133333  0.466667  0.428571      8.000000
 -0.466667  0.333333  0.428571      8.000000
  0.400000  0.133333  0.428571      8.000000
 -0.133333 -0.466667  0.428571      8.000000
  0.466667  0.400000  0.428571      8.000000
  0.200000  0.200000  0.428571      4.000000
 -0.200000  0.400000  0.428571      8.000000
  0.266667  0.200000  0.428571      8.000000
 -0.200000  0.466667  0.428571      8.000000
 -0.466667  0.266667  0.428571      8.000000
  0.333333  0.200000  0.428571      8.000000
 -0.200000 -0.466667  0.428571      8.000000
  0.466667  0.333333  0.428571      8.000000
  0.400000  0.200000  0.428571      8.000000
  0.400000  0.400000  0.428571      4.000000
  0.266667  0.266667  0.428571      4.000000
 -0.266667 -0.466667  0.428571      8.000000
  0.333333  0.266667  0.428571      8.000000
 -0.266667 -0.400000  0.428571      8.000000
  0.400000  0.333333  0.428571      8.000000
  0.333333  0.333333  0.428571      4.000000
 
 Following cartesian coordinates:
            Coordinates               Weight
  0.000000  0.000000  0.000000      1.000000
  0.025681  0.014827  0.000000      4.000000
 -0.025681  0.014827  0.000000      2.000000
  0.051362  0.029654  0.000000      4.000000
 -0.051362  0.029654  0.000000      2.000000
  0.077044  0.044481  0.000000      4.000000
 -0.077044  0.044481  0.000000      2.000000
  0.102725  0.059308  0.000000      4.000000
 -0.102725  0.059308  0.000000      2.000000
  0.128406  0.074135  0.000000      4.000000
 -0.128406  0.074135  0.000000      2.000000
  0.154087  0.088962  0.000000      4.000000
 -0.154087  0.088962  0.000000      2.000000
  0.179768  0.103789  0.000000      4.000000
 -0.179768  0.103789  0.000000      2.000000
  0.025681  0.044481  0.000000      2.000000
 -0.025681  0.044481  0.000000      4.000000
  0.051362  0.059308  0.000000      4.000000
 -0.025681  0.074135  0.000000      4.000000
 -0.077044  0.014827  0.000000      4.000000
  0.077044  0.074135  0.000000      4.000000
 -0.025681  0.103789  0.000000      4.000000
 -0.102725  0.029654  0.000000      4.000000
  0.102725  0.088962  0.000000      4.000000
 -0.025681  0.133443  0.000000      4.000000
 -0.128406  0.044481  0.000000      4.000000
  0.128406  0.103789  0.000000      4.000000
 -0.025681  0.163097  0.000000      4.000000
 -0.154087  0.059308  0.000000      4.000000
  0.154087  0.118616  0.000000      4.000000
 -0.025681  0.192751  0.000000      4.000000
 -0.179768  0.074135  0.000000      4.000000
  0.179768  0.133443  0.000000      4.000000
  0.179768  0.311368  0.000000      2.000000
  0.051362  0.088962  0.000000      2.000000
 -0.051362  0.088962  0.000000      4.000000
  0.077044  0.103789  0.000000      4.000000
 -0.051362  0.118616  0.000000      4.000000
 -0.128406  0.014827  0.000000      4.000000
  0.102725  0.118616  0.000000      4.000000
 -0.051362  0.148270  0.000000      4.000000
 -0.154087  0.029654  0.000000      4.000000
  0.128406  0.133443  0.000000      4.000000
 -0.051362  0.177924  0.000000      4.000000
 -0.179768  0.044481  0.000000      4.000000
  0.154087  0.148270  0.000000      4.000000
 -0.051362 -0.237233  0.000000      4.000000
  0.179768  0.281714  0.000000      4.000000
  0.077044  0.133443  0.000000      2.000000
 -0.077044  0.133443  0.000000      4.000000
  0.102725  0.148270  0.000000      4.000000
 -0.077044  0.163097  0.000000      4.000000
 -0.179768  0.014827  0.000000      4.000000
  0.128406  0.163097  0.000000      4.000000
 -0.077044 -0.252060  0.000000      4.000000
  0.179768  0.252060  0.000000      4.000000
  0.154087  0.177924  0.000000      4.000000
  0.154087  0.266887  0.000000      2.000000
  0.102725  0.177924  0.000000      2.000000
 -0.102725 -0.266887  0.000000      4.000000
  0.128406  0.192751  0.000000      4.000000
 -0.102725 -0.237233  0.000000      4.000000
  0.154087  0.237233  0.000000      4.000000
  0.128406  0.222406  0.000000      2.000000
  0.000000  0.000000  0.028879      2.000000
  0.025681  0.014827  0.028879      8.000000
 -0.025681  0.014827  0.028879      4.000000
  0.051362  0.029654  0.028879      8.000000
 -0.051362  0.029654  0.028879      4.000000
  0.077044  0.044481  0.028879      8.000000
 -0.077044  0.044481  0.028879      4.000000
  0.102725  0.059308  0.028879      8.000000
 -0.102725  0.059308  0.028879      4.000000
  0.128406  0.074135  0.028879      8.000000
 -0.128406  0.074135  0.028879      4.000000
  0.154087  0.088962  0.028879      8.000000
 -0.154087  0.088962  0.028879      4.000000
  0.179768  0.103789  0.028879      8.000000
 -0.179768  0.103789  0.028879      4.000000
  0.025681  0.044481  0.028879      4.000000
 -0.025681  0.044481  0.028879      8.000000
  0.051362  0.059308  0.028879      8.000000
 -0.025681  0.074135  0.028879      8.000000
 -0.077044  0.014827  0.028879      8.000000
  0.077044  0.074135  0.028879      8.000000
 -0.025681  0.103789  0.028879      8.000000
 -0.102725  0.029654  0.028879      8.000000
  0.102725  0.088962  0.028879      8.000000
 -0.025681  0.133443  0.028879      8.000000
 -0.128406  0.044481  0.028879      8.000000
  0.128406  0.103789  0.028879      8.000000
 -0.025681  0.163097  0.028879      8.000000
 -0.154087  0.059308  0.028879      8.000000
  0.154087  0.118616  0.028879      8.000000
 -0.025681  0.192751  0.028879      8.000000
 -0.179768  0.074135  0.028879      8.000000
  0.179768  0.133443  0.028879      8.000000
  0.179768  0.311368  0.028879      4.000000
  0.051362  0.088962  0.028879      4.000000
 -0.051362  0.088962  0.028879      8.000000
  0.077044  0.103789  0.028879      8.000000
 -0.051362  0.118616  0.028879      8.000000
 -0.128406  0.014827  0.028879      8.000000
  0.102725  0.118616  0.028879      8.000000
 -0.051362  0.148270  0.028879      8.000000
 -0.154087  0.029654  0.028879      8.000000
  0.128406  0.133443  0.028879      8.000000
 -0.051362  0.177924  0.028879      8.000000
 -0.179768  0.044481  0.028879      8.000000
  0.154087  0.148270  0.028879      8.000000
 -0.051362 -0.237233  0.028879      8.000000
  0.179768  0.281714  0.028879      8.000000
  0.077044  0.133443  0.028879      4.000000
 -0.077044  0.133443  0.028879      8.000000
  0.102725  0.148270  0.028879      8.000000
 -0.077044  0.163097  0.028879      8.000000
 -0.179768  0.014827  0.028879      8.000000
  0.128406  0.163097  0.028879      8.000000
 -0.077044 -0.252060  0.028879      8.000000
  0.179768  0.252060  0.028879      8.000000
  0.154087  0.177924  0.028879      8.000000
  0.154087  0.266887  0.028879      4.000000
  0.102725  0.177924  0.028879      4.000000
 -0.102725 -0.266887  0.028879      8.000000
  0.128406  0.192751  0.028879      8.000000
 -0.102725 -0.237233  0.028879      8.000000
  0.154087  0.237233  0.028879      8.000000
  0.128406  0.222406  0.028879      4.000000
  0.000000  0.000000  0.057757      2.000000
  0.025681  0.014827  0.057757      8.000000
 -0.025681  0.014827  0.057757      4.000000
  0.051362  0.029654  0.057757      8.000000
 -0.051362  0.029654  0.057757      4.000000
  0.077044  0.044481  0.057757      8.000000
 -0.077044  0.044481  0.057757      4.000000
  0.102725  0.059308  0.057757      8.000000
 -0.102725  0.059308  0.057757      4.000000
  0.128406  0.074135  0.057757      8.000000
 -0.128406  0.074135  0.057757      4.000000
  0.154087  0.088962  0.057757      8.000000
 -0.154087  0.088962  0.057757      4.000000
  0.179768  0.103789  0.057757      8.000000
 -0.179768  0.103789  0.057757      4.000000
  0.025681  0.044481  0.057757      4.000000
 -0.025681  0.044481  0.057757      8.000000
  0.051362  0.059308  0.057757      8.000000
 -0.025681  0.074135  0.057757      8.000000
 -0.077044  0.014827  0.057757      8.000000
  0.077044  0.074135  0.057757      8.000000
 -0.025681  0.103789  0.057757      8.000000
 -0.102725  0.029654  0.057757      8.000000
  0.102725  0.088962  0.057757      8.000000
 -0.025681  0.133443  0.057757      8.000000
 -0.128406  0.044481  0.057757      8.000000
  0.128406  0.103789  0.057757      8.000000
 -0.025681  0.163097  0.057757      8.000000
 -0.154087  0.059308  0.057757      8.000000
  0.154087  0.118616  0.057757      8.000000
 -0.025681  0.192751  0.057757      8.000000
 -0.179768  0.074135  0.057757      8.000000
  0.179768  0.133443  0.057757      8.000000
  0.179768  0.311368  0.057757      4.000000
  0.051362  0.088962  0.057757      4.000000
 -0.051362  0.088962  0.057757      8.000000
  0.077044  0.103789  0.057757      8.000000
 -0.051362  0.118616  0.057757      8.000000
 -0.128406  0.014827  0.057757      8.000000
  0.102725  0.118616  0.057757      8.000000
 -0.051362  0.148270  0.057757      8.000000
 -0.154087  0.029654  0.057757      8.000000
  0.128406  0.133443  0.057757      8.000000
 -0.051362  0.177924  0.057757      8.000000
 -0.179768  0.044481  0.057757      8.000000
  0.154087  0.148270  0.057757      8.000000
 -0.051362 -0.237233  0.057757      8.000000
  0.179768  0.281714  0.057757      8.000000
  0.077044  0.133443  0.057757      4.000000
 -0.077044  0.133443  0.057757      8.000000
  0.102725  0.148270  0.057757      8.000000
 -0.077044  0.163097  0.057757      8.000000
 -0.179768  0.014827  0.057757      8.000000
  0.128406  0.163097  0.057757      8.000000
 -0.077044 -0.252060  0.057757      8.000000
  0.179768  0.252060  0.057757      8.000000
  0.154087  0.177924  0.057757      8.000000
  0.154087  0.266887  0.057757      4.000000
  0.102725  0.177924  0.057757      4.000000
 -0.102725 -0.266887  0.057757      8.000000
  0.128406  0.192751  0.057757      8.000000
 -0.102725 -0.237233  0.057757      8.000000
  0.154087  0.237233  0.057757      8.000000
  0.128406  0.222406  0.057757      4.000000
  0.000000  0.000000  0.086636      2.000000
  0.025681  0.014827  0.086636      8.000000
 -0.025681  0.014827  0.086636      4.000000
  0.051362  0.029654  0.086636      8.000000
 -0.051362  0.029654  0.086636      4.000000
  0.077044  0.044481  0.086636      8.000000
 -0.077044  0.044481  0.086636      4.000000
  0.102725  0.059308  0.086636      8.000000
 -0.102725  0.059308  0.086636      4.000000
  0.128406  0.074135  0.086636      8.000000
 -0.128406  0.074135  0.086636      4.000000
  0.154087  0.088962  0.086636      8.000000
 -0.154087  0.088962  0.086636      4.000000
  0.179768  0.103789  0.086636      8.000000
 -0.179768  0.103789  0.086636      4.000000
  0.025681  0.044481  0.086636      4.000000
 -0.025681  0.044481  0.086636      8.000000
  0.051362  0.059308  0.086636      8.000000
 -0.025681  0.074135  0.086636      8.000000
 -0.077044  0.014827  0.086636      8.000000
  0.077044  0.074135  0.086636      8.000000
 -0.025681  0.103789  0.086636      8.000000
 -0.102725  0.029654  0.086636      8.000000
  0.102725  0.088962  0.086636      8.000000
 -0.025681  0.133443  0.086636      8.000000
 -0.128406  0.044481  0.086636      8.000000
  0.128406  0.103789  0.086636      8.000000
 -0.025681  0.163097  0.086636      8.000000
 -0.154087  0.059308  0.086636      8.000000
  0.154087  0.118616  0.086636      8.000000
 -0.025681  0.192751  0.086636      8.000000
 -0.179768  0.074135  0.086636      8.000000
  0.179768  0.133443  0.086636      8.000000
  0.179768  0.311368  0.086636      4.000000
  0.051362  0.088962  0.086636      4.000000
 -0.051362  0.088962  0.086636      8.000000
  0.077044  0.103789  0.086636      8.000000
 -0.051362  0.118616  0.086636      8.000000
 -0.128406  0.014827  0.086636      8.000000
  0.102725  0.118616  0.086636      8.000000
 -0.051362  0.148270  0.086636      8.000000
 -0.154087  0.029654  0.086636      8.000000
  0.128406  0.133443  0.086636      8.000000
 -0.051362  0.177924  0.086636      8.000000
 -0.179768  0.044481  0.086636      8.000000
  0.154087  0.148270  0.086636      8.000000
 -0.051362 -0.237233  0.086636      8.000000
  0.179768  0.281714  0.086636      8.000000
  0.077044  0.133443  0.086636      4.000000
 -0.077044  0.133443  0.086636      8.000000
  0.102725  0.148270  0.086636      8.000000
 -0.077044  0.163097  0.086636      8.000000
 -0.179768  0.014827  0.086636      8.000000
  0.128406  0.163097  0.086636      8.000000
 -0.077044 -0.252060  0.086636      8.000000
  0.179768  0.252060  0.086636      8.000000
  0.154087  0.177924  0.086636      8.000000
  0.154087  0.266887  0.086636      4.000000
  0.102725  0.177924  0.086636      4.000000
 -0.102725 -0.266887  0.086636      8.000000
  0.128406  0.192751  0.086636      8.000000
 -0.102725 -0.237233  0.086636      8.000000
  0.154087  0.237233  0.086636      8.000000
  0.128406  0.222406  0.086636      4.000000
 


--------------------------------------------------------------------------------------------------------




 Dimension of arrays:
   k-points           NKPTS =    256   k-points in BZ     NKDIM =    256   number of bands    NBANDS=     24
   number of dos      NEDOS =   2001   number of ions     NIONS =      2
   non local maximal  LDIM  =      6   non local SUM 2l+1 LMDIM =     18
   total plane-waves  NPLWV =  14400
   max r-space proj   IRMAX =      1   max aug-charges    IRDMAX= 119123
   dimension x,y,z NGX =    20 NGY =   20 NGZ =   36
   dimension x,y,z NGXF=    40 NGYF=   40 NGZF=   72
   support grid    NGXF=    80 NGYF=   80 NGZF=  144
   ions per type =               2
   NGX,Y,Z   is equivalent  to a cutoff of  12.81, 12.81, 12.10 a.u.
   NGXF,Y,Z  is equivalent  to a cutoff of  25.62, 25.62, 24.20 a.u.

 SYSTEM =  unknown system                          
 POSCAR =  cif2pos.py                              

 Startparameter for this run:
   NWRITE =      2    write-flag & timer
   PREC   = accura    normal or accurate (medium, high low for compatibility)
   ISTART =      0    job   : 0-new  1-cont  2-samecut
   ICHARG =      2    charge: 1-file 2-atom 10-const
   ISPIN  =      1    spin polarized calculation?
   LNONCOLLINEAR =      F non collinear calculations
   LSORBIT =      F    spin-orbit coupling
   INIWAV =      1    electr: 0-lowe 1-rand  2-diag
   LASPH  =      T    aspherical Exc in radial PAW
 Electronic Relaxation 1
   ENCUT  =  500.0 eV  36.75 Ry    6.06 a.u.   4.73  4.73  9.02*2*pi/ulx,y,z
   ENINI  =  500.0     initial cutoff
   ENAUG  =  575.9 eV  augmentation charge cutoff
   NELM   =     60;   NELMIN=  2; NELMDL=  0     # of ELM steps 
   EDIFF  = 0.1E-07   stopping-criterion for ELM
   LREAL  =      F    real-space projection
   NLSPLINE    = F    spline interpolate recip. space projectors
   LCOMPAT=      F    compatible to vasp.4.4
   GGA_COMPAT  = T    GGA compatible to vasp.4.4-vasp.4.6
   LMAXPAW     = -100 max onsite density
   LMAXMIX     =    2 max onsite mixed and CHGCAR
   VOSKOWN=      0    Vosko Wilk Nusair interpolation
   ROPT   =    0.00000
 Ionic relaxation
   EDIFFG = 0.1E-06   stopping-criterion for IOM
   NSW    =      0    number of steps for IOM
   NBLOCK =      1;   KBLOCK =      1    inner block; outer block 
   IBRION =     -1    ionic relax: 0-MD 1-quasi-New 2-CG
   NFREE  =      0    steps in history (QN), initial steepest desc. (CG)
   ISIF   =      2    stress and relaxation
   IWAVPR =     10    prediction:  0-non 1-charg 2-wave 3-comb
   ISYM   =      2    0-nonsym 1-usesym 2-fastsym
   LCORR  =      T    Harris-Foulkes like correction to forces

   POTIM  = 0.5000    time-step for ionic-motion
   TEIN   =    0.0    initial temperature
   TEBEG  =    0.0;   TEEND  =   0.0 temperature during run
   SMASS  =  -3.00    Nose mass-parameter (am)
   estimated Nose-frequenzy (Omega)   =  0.10E-29 period in steps = 0.13E+47 mass=  -0.154E-27a.u.
   SCALEE = 1.0000    scale energy and forces
   NPACO  =    256;   APACO  = 10.0  distance and # of slots for P.C.
   PSTRESS=    0.0 pullay stress

  Mass of Ions in am
   POMASS =  65.39
  Ionic Valenz
   ZVAL   =  12.00
  Atomic Wigner-Seitz radii
   RWIGS  =  -1.00
  virtual crystal weights 
   VCA    =   1.00
   NELECT =      24.0000    total number of electrons
   NUPDOWN=      -1.0000    fix difference up-down

 DOS related values:
   EMIN   =  10.00;   EMAX   =-10.00  energy-range for DOS
   EFERMI =   0.00;   METHOD = LEGACY      
   ISMEAR =     0;   SIGMA  =   0.05  broadening in eV -4-tet -1-fermi 0-gaus

 Electronic relaxation 2 (details)
   IALGO  =     38    algorithm
   LDIAG  =      T    sub-space diagonalisation (order eigenvalues)
   LSUBROT=      F    optimize rotation matrix (better conditioning)
   TURBO    =      0    0=normal 1=particle mesh
   IRESTART =      0    0=no restart 2=restart with 2 vectors
   NREBOOT  =      0    no. of reboots
   NMIN     =      0    reboot dimension
   EREF     =   0.00    reference energy to select bands
   IMIX   =      4    mixing-type and parameters
     AMIX     =   0.40;   BMIX     =  1.00
     AMIX_MAG =   1.60;   BMIX_MAG =  1.00
     AMIN     =   0.10
     WC   =   100.;   INIMIX=   1;  MIXPRE=   1;  MAXMIX= -45

 Intra band minimization:
   WEIMIN = 0.0000     energy-eigenvalue tresh-hold
   EBREAK =  0.10E-09  absolut break condition
   DEPER  =   0.30     relativ break condition  

   TIME   =   0.40     timestep for ELM

  volume/ion in A,a.u.               =      14.43        97.41
  Fermi-wavevector in a.u.,A,eV,Ry     =   1.539328  2.908907 32.239406  2.369529
  Thomas-Fermi vector in A             =   2.645571
 
 Write flags
   LWAVE        =      T    write WAVECAR
   LDOWNSAMPLE  =      F    k-point downsampling of WAVECAR
   LCHARG       =      T    write CHGCAR
   LVTOT        =      F    write LOCPOT, total local potential
   LVHAR        =      F    write LOCPOT, Hartree potential only
   LELF         =      F    write electronic localiz. function (ELF)
   LORBIT       =     11    0 simple, 1 ext, 2 COOP (PROOUT), +10 PAW based schemes


 Dipole corrections
   LMONO  =      F    monopole corrections only (constant potential shift)
   LDIPOL =      F    correct potential (dipole corrections)
   IDIPOL =      0    1-x, 2-y, 3-z, 4-all directions 
   EPSILON=  1.0000000 bulk dielectric constant

 Exchange correlation treatment:
   GGA     =    --    GGA type
   LEXCH   =     8    internal setting for exchange type
   LIBXC   =     F    Libxc                    
   VOSKOWN =     0    Vosko Wilk Nusair interpolation
   LHFCALC =     F    Hartree Fock is set to
   LHFONE  =     F    Hartree Fock one center treatment
   AEXX    =    0.0000 exact exchange contribution

 Linear response parameters
   LEPSILON=     F    determine dielectric tensor
   LRPA    =     F    only Hartree local field effects (RPA)
   LNABLA  =     F    use nabla operator in PAW spheres
   LVEL    =     F    velocity operator in full k-point grid
   CSHIFT  =0.1000    complex shift for real part using Kramers Kronig
   OMEGAMAX=  -1.0    maximum frequency
   DEG_THRESHOLD= 0.2000000E-02 threshold for treating states as degnerate
   RTIME   =   -0.100 relaxation time in fs
  (WPLASMAI=    0.000 imaginary part of plasma frequency in eV, 0.658/RTIME)
   DFIELD  = 0.0000000 0.0000000 0.0000000 field for delta impulse in time
 
  Optional k-point grid parameters
   LKPOINTS_OPT  =     F    use optional k-point grid
   KPOINTS_OPT_MODE=     1    mode for optional k-point grid
 
 Orbital magnetization related:
   ORBITALMAG=     F  switch on orbital magnetization
   LCHIMAG   =     F  perturbation theory with respect to B field
   DQ        =  0.001000  dq finite difference perturbation B field
   LLRAUG    =     F  two centre corrections for induced B field
   LBONE     =     F  B-component reconstruction in AE one-centre
   LVGVCALC  =     T  calculate vGv susceptibility
   LVGVAPPL  =     F  apply vGv susceptibility instead of pGv for G=0

 Random number generation:
   RANDOM_GENERATOR = DEFAULT
   PCG_SEED         = not used


--------------------------------------------------------------------------------------------------------


 Static calculation
 charge density and potential will be updated during run
 non-spin polarized calculation
 Variant of blocked Davidson
 Davidson routine will perform the subspace rotation
 perform sub-space diagonalisation
    after iterative eigenvector-optimisation
 modified Broyden-mixing scheme, WC =      100.0
 initial mixing is a Kerker type mixing with AMIX =  0.4000 and BMIX =      1.0000
 Hartree-type preconditioning will be used
 using additional bands           12
 reciprocal scheme for non local part
 use partial core corrections
 calculate Harris-corrections to forces 
   (improved forces if not selfconsistent)
 use gradient corrections 
 use of overlap-Matrix (Vanderbilt PP)
 Gauss-broadening in eV      SIGMA  =   0.05


--------------------------------------------------------------------------------------------------------


  energy-cutoff  :      500.00
  volume of cell :       28.87
      direct lattice vectors                 reciprocal lattice vectors
     2.595935120  0.000000000  0.000000000     0.385217640  0.222405552  0.000000000
    -1.297967560  2.248145311  0.000000000     0.000000000  0.444811105  0.000000000
     0.000000000  0.000000000  4.946800000     0.000000000  0.000000000  0.202150885

  length of vectors
     2.595935120  2.595934731  4.946800000     0.444811038  0.444811105  0.202150885


 
 k-points in units of 2pi/SCALE and weight: K-Spacing Value to Generate K-Mesh: 0.03
   0.00000000  0.00000000  0.00000000       0.001
   0.02568118  0.01482704  0.00000000       0.003
  -0.02568118  0.01482704  0.00000000       0.001
   0.05136235  0.02965407  0.00000000       0.003
  -0.05136235  0.02965407  0.00000000       0.001
   0.07704353  0.04448111  0.00000000       0.003
  -0.07704353  0.04448111  0.00000000       0.001
   0.10272470  0.05930815  0.00000000       0.003
  -0.10272470  0.05930815  0.00000000       0.001
   0.12840588  0.07413518  0.00000000       0.003
  -0.12840588  0.07413518  0.00000000       0.001
   0.15408706  0.08896222  0.00000000       0.003
  -0.15408706  0.08896222  0.00000000       0.001
   0.17976823  0.10378926  0.00000000       0.003
  -0.17976823  0.10378926  0.00000000       0.001
   0.02568118  0.04448111  0.00000000       0.001
  -0.02568118  0.04448111  0.00000000       0.003
   0.05136235  0.05930815  0.00000000       0.003
  -0.02568118  0.07413518  0.00000000       0.003
  -0.07704353  0.01482704  0.00000000       0.003
   0.07704353  0.07413518  0.00000000       0.003
  -0.02568118  0.10378926  0.00000000       0.003
  -0.10272470  0.02965407  0.00000000       0.003
   0.10272470  0.08896222  0.00000000       0.003
  -0.02568118  0.13344333  0.00000000       0.003
  -0.12840588  0.04448111  0.00000000       0.003
   0.12840588  0.10378926  0.00000000       0.003
  -0.02568118  0.16309741  0.00000000       0.003
  -0.15408706  0.05930815  0.00000000       0.003
   0.15408706  0.11861629  0.00000000       0.003
  -0.02568118  0.19275148  0.00000000       0.003
  -0.17976823  0.07413518  0.00000000       0.003
   0.17976823  0.13344333  0.00000000       0.003
   0.17976823  0.31136777  0.00000000       0.001
   0.05136235  0.08896222  0.00000000       0.001
  -0.05136235  0.08896222  0.00000000       0.003
   0.07704353  0.10378926  0.00000000       0.003
  -0.05136235  0.11861629  0.00000000       0.003
  -0.12840588  0.01482704  0.00000000       0.003
   0.10272470  0.11861629  0.00000000       0.003
  -0.05136235  0.14827037  0.00000000       0.003
  -0.15408706  0.02965407  0.00000000       0.003
   0.12840588  0.13344333  0.00000000       0.003
  -0.05136235  0.17792444  0.00000000       0.003
  -0.17976823  0.04448111  0.00000000       0.003
   0.15408706  0.14827037  0.00000000       0.003
  -0.05136235 -0.23723259  0.00000000       0.003
   0.17976823  0.28171370  0.00000000       0.003
   0.07704353  0.13344333  0.00000000       0.001
  -0.07704353  0.13344333  0.00000000       0.003
   0.10272470  0.14827037  0.00000000       0.003
  -0.07704353  0.16309741  0.00000000       0.003
  -0.17976823  0.01482704  0.00000000       0.003
   0.12840588  0.16309741  0.00000000       0.003
  -0.07704353 -0.25205963  0.00000000       0.003
   0.17976823  0.25205963  0.00000000       0.003
   0.15408706  0.17792444  0.00000000       0.003
   0.15408706  0.26688666  0.00000000       0.001
   0.10272470  0.17792444  0.00000000       0.001
  -0.10272470 -0.26688666  0.00000000       0.003
   0.12840588  0.19275148  0.00000000       0.003
  -0.10272470 -0.23723259  0.00000000       0.003
   0.15408706  0.23723259  0.00000000       0.003
   0.12840588  0.22240555  0.00000000       0.001
   0.00000000  0.00000000  0.02887870       0.001
   0.02568118  0.01482704  0.02887870       0.005
  -0.02568118  0.01482704  0.02887870       0.003
   0.05136235  0.02965407  0.02887870       0.005
  -0.05136235  0.02965407  0.02887870       0.003
   0.07704353  0.04448111  0.02887870       0.005
  -0.07704353  0.04448111  0.02887870       0.003
   0.10272470  0.05930815  0.02887870       0.005
  -0.10272470  0.05930815  0.02887870       0.003
   0.12840588  0.07413518  0.02887870       0.005
  -0.12840588  0.07413518  0.02887870       0.003
   0.15408706  0.08896222  0.02887870       0.005
  -0.15408706  0.08896222  0.02887870       0.003
   0.17976823  0.10378926  0.02887870       0.005
  -0.17976823  0.10378926  0.02887870       0.003
   0.02568118  0.04448111  0.02887870       0.003
  -0.02568118  0.04448111  0.02887870       0.005
   0.05136235  0.05930815  0.02887870       0.005
  -0.02568118  0.07413518  0.02887870       0.005
  -0.07704353  0.01482704  0.02887870       0.005
   0.07704353  0.07413518  0.02887870       0.005
  -0.02568118  0.10378926  0.02887870       0.005
  -0.10272470  0.02965407  0.02887870       0.005
   0.10272470  0.08896222  0.02887870       0.005
  -0.02568118  0.13344333  0.02887870       0.005
  -0.12840588  0.04448111  0.02887870       0.005
   0.12840588  0.10378926  0.02887870       0.005
  -0.02568118  0.16309741  0.02887870       0.005
  -0.15408706  0.05930815  0.02887870       0.005
   0.15408706  0.11861629  0.02887870       0.005
  -0.02568118  0.19275148  0.02887870       0.005
  -0.17976823  0.07413518  0.02887870       0.005
   0.17976823  0.13344333  0.02887870       0.005
   0.17976823  0.31136777  0.02887870       0.003
   0.05136235  0.08896222  0.02887870       0.003
  -0.05136235  0.08896222  0.02887870       0.005
   0.07704353  0.10378926  0.02887870       0.005
  -0.05136235  0.11861629  0.02887870       0.005
  -0.12840588  0.01482704  0.02887870       0.005
   0.10272470  0.11861629  0.02887870       0.005
  -0.05136235  0.14827037  0.02887870       0.005
  -0.15408706  0.02965407  0.02887870       0.005
   0.12840588  0.13344333  0.02887870       0.005
  -0.05136235  0.17792444  0.02887870       0.005
  -0.17976823  0.04448111  0.02887870       0.005
   0.15408706  0.14827037  0.02887870       0.005
  -0.05136235 -0.23723259  0.02887870       0.005
   0.17976823  0.28171370  0.02887870       0.005
   0.07704353  0.13344333  0.02887870       0.003
  -0.07704353  0.13344333  0.02887870       0.005
   0.10272470  0.14827037  0.02887870       0.005
  -0.07704353  0.16309741  0.02887870       0.005
  -0.17976823  0.01482704  0.02887870       0.005
   0.12840588  0.16309741  0.02887870       0.005
  -0.07704353 -0.25205963  0.02887870       0.005
   0.17976823  0.25205963  0.02887870       0.005
   0.15408706  0.17792444  0.02887870       0.005
   0.15408706  0.26688666  0.02887870       0.003
   0.10272470  0.17792444  0.02887870       0.003
  -0.10272470 -0.26688666  0.02887870       0.005
   0.12840588  0.19275148  0.02887870       0.005
  -0.10272470 -0.23723259  0.02887870       0.005
   0.15408706  0.23723259  0.02887870       0.005
   0.12840588  0.22240555  0.02887870       0.003
   0.00000000  0.00000000  0.05775740       0.001
   0.02568118  0.01482704  0.05775740       0.005
  -0.02568118  0.01482704  0.05775740       0.003
   0.05136235  0.02965407  0.05775740       0.005
  -0.05136235  0.02965407  0.05775740       0.003
   0.07704353  0.04448111  0.05775740       0.005
  -0.07704353  0.04448111  0.05775740       0.003
   0.10272470  0.05930815  0.05775740       0.005
  -0.10272470  0.05930815  0.05775740       0.003
   0.12840588  0.07413518  0.05775740       0.005
  -0.12840588  0.07413518  0.05775740       0.003
   0.15408706  0.08896222  0.05775740       0.005
  -0.15408706  0.08896222  0.05775740       0.003
   0.17976823  0.10378926  0.05775740       0.005
  -0.17976823  0.10378926  0.05775740       0.003
   0.02568118  0.04448111  0.05775740       0.003
  -0.02568118  0.04448111  0.05775740       0.005
   0.05136235  0.05930815  0.05775740       0.005
  -0.02568118  0.07413518  0.05775740       0.005
  -0.07704353  0.01482704  0.05775740       0.005
   0.07704353  0.07413518  0.05775740       0.005
  -0.02568118  0.10378926  0.05775740       0.005
  -0.10272470  0.02965407  0.05775740       0.005
   0.10272470  0.08896222  0.05775740       0.005
  -0.02568118  0.13344333  0.05775740       0.005
  -0.12840588  0.04448111  0.05775740       0.005
   0.12840588  0.10378926  0.05775740       0.005
  -0.02568118  0.16309741  0.05775740       0.005
  -0.15408706  0.05930815  0.05775740       0.005
   0.15408706  0.11861629  0.05775740       0.005
  -0.02568118  0.19275148  0.05775740       0.005
  -0.17976823  0.07413518  0.05775740       0.005
   0.17976823  0.13344333  0.05775740       0.005
   0.17976823  0.31136777  0.05775740       0.003
   0.05136235  0.08896222  0.05775740       0.003
  -0.05136235  0.08896222  0.05775740       0.005
   0.07704353  0.10378926  0.05775740       0.005
  -0.05136235  0.11861629  0.05775740       0.005
  -0.12840588  0.01482704  0.05775740       0.005
   0.10272470  0.11861629  0.05775740       0.005
  -0.05136235  0.14827037  0.05775740       0.005
  -0.15408706  0.02965407  0.05775740       0.005
   0.12840588  0.13344333  0.05775740       0.005
  -0.05136235  0.17792444  0.05775740       0.005
  -0.17976823  0.04448111  0.05775740       0.005
   0.15408706  0.14827037  0.05775740       0.005
  -0.05136235 -0.23723259  0.05775740       0.005
   0.17976823  0.28171370  0.05775740       0.005
   0.07704353  0.13344333  0.05775740       0.003
  -0.07704353  0.13344333  0.05775740       0.005
   0.10272470  0.14827037  0.05775740       0.005
  -0.07704353  0.16309741  0.05775740       0.005
  -0.17976823  0.01482704  0.05775740       0.005
   0.12840588  0.16309741  0.05775740       0.005
  -0.07704353 -0.25205963  0.05775740       0.005
   0.17976823  0.25205963  0.05775740       0.005
   0.15408706  0.17792444  0.05775740       0.005
   0.15408706  0.26688666  0.05775740       0.003
   0.10272470  0.17792444  0.05775740       0.003
  -0.10272470 -0.26688666  0.05775740       0.005
   0.12840588  0.19275148  0.05775740       0.005
  -0.10272470 -0.23723259  0.05775740       0.005
   0.15408706  0.23723259  0.05775740       0.005
   0.12840588  0.22240555  0.05775740       0.003
   0.00000000  0.00000000  0.08663609       0.001
   0.02568118  0.01482704  0.08663609       0.005
  -0.02568118  0.01482704  0.08663609       0.003
   0.05136235  0.02965407  0.08663609       0.005
  -0.05136235  0.02965407  0.08663609       0.003
   0.07704353  0.04448111  0.08663609       0.005
  -0.07704353  0.04448111  0.08663609       0.003
   0.10272470  0.05930815  0.08663609       0.005
  -0.10272470  0.05930815  0.08663609       0.003
   0.12840588  0.07413518  0.08663609       0.005
  -0.12840588  0.07413518  0.08663609       0.003
   0.15408706  0.08896222  0.08663609       0.005
  -0.15408706  0.08896222  0.08663609       0.003
   0.17976823  0.10378926  0.08663609       0.005
  -0.17976823  0.10378926  0.08663609       0.003
   0.02568118  0.04448111  0.08663609       0.003
  -0.02568118  0.04448111  0.08663609       0.005
   0.05136235  0.05930815  0.08663609       0.005
  -0.02568118  0.07413518  0.08663609       0.005
  -0.07704353  0.01482704  0.08663609       0.005
   0.07704353  0.07413518  0.08663609       0.005
  -0.02568118  0.10378926  0.08663609       0.005
  -0.10272470  0.02965407  0.08663609       0.005
   0.10272470  0.08896222  0.08663609       0.005
  -0.02568118  0.13344333  0.08663609       0.005
  -0.12840588  0.04448111  0.08663609       0.005
   0.12840588  0.10378926  0.08663609       0.005
  -0.02568118  0.16309741  0.08663609       0.005
  -0.15408706  0.05930815  0.08663609       0.005
   0.15408706  0.11861629  0.08663609       0.005
  -0.02568118  0.19275148  0.08663609       0.005
  -0.17976823  0.07413518  0.08663609       0.005
   0.17976823  0.13344333  0.08663609       0.005
   0.17976823  0.31136777  0.08663609       0.003
   0.05136235  0.08896222  0.08663609       0.003
  -0.05136235  0.08896222  0.08663609       0.005
   0.07704353  0.10378926  0.08663609       0.005
  -0.05136235  0.11861629  0.08663609       0.005
  -0.12840588  0.01482704  0.08663609       0.005
   0.10272470  0.11861629  0.08663609       0.005
  -0.05136235  0.14827037  0.08663609       0.005
  -0.15408706  0.02965407  0.08663609       0.005
   0.12840588  0.13344333  0.08663609       0.005
  -0.05136235  0.17792444  0.08663609       0.005
  -0.17976823  0.04448111  0.08663609       0.005
   0.15408706  0.14827037  0.08663609       0.005
  -0.05136235 -0.23723259  0.08663609       0.005
   0.17976823  0.28171370  0.08663609       0.005
   0.07704353  0.13344333  0.08663609       0.003
  -0.07704353  0.13344333  0.08663609       0.005
   0.10272470  0.14827037  0.08663609       0.005
  -0.07704353  0.16309741  0.08663609       0.005
  -0.17976823  0.01482704  0.08663609       0.005
   0.12840588  0.16309741  0.08663609       0.005
  -0.07704353 -0.25205963  0.08663609       0.005
   0.17976823  0.25205963  0.08663609       0.005
   0.15408706  0.17792444  0.08663609       0.005
   0.15408706  0.26688666  0.08663609       0.003
   0.10272470  0.17792444  0.08663609       0.003
  -0.10272470 -0.26688666  0.08663609       0.005
   0.12840588  0.19275148  0.08663609       0.005
  -0.10272470 -0.23723259  0.08663609       0.005
   0.15408706  0.23723259  0.08663609       0.005
   0.12840588  0.22240555  0.08663609       0.003
 
 k-points in reciprocal lattice and weights: K-Spacing Value to Generate K-Mesh: 0.03
   0.00000000  0.00000000  0.00000000       0.001
   0.06666667  0.00000000  0.00000000       0.003
  -0.06666667  0.06666667  0.00000000       0.001
   0.13333333  0.00000000  0.00000000       0.003
  -0.13333333  0.13333333  0.00000000       0.001
   0.20000000  0.00000000  0.00000000       0.003
  -0.20000000  0.20000000  0.00000000       0.001
   0.26666667  0.00000000  0.00000000       0.003
  -0.26666667  0.26666667  0.00000000       0.001
   0.33333333  0.00000000  0.00000000       0.003
  -0.33333333  0.33333333  0.00000000       0.001
   0.40000000  0.00000000  0.00000000       0.003
  -0.40000000  0.40000000  0.00000000       0.001
   0.46666667  0.00000000  0.00000000       0.003
  -0.46666667  0.46666667  0.00000000       0.001
   0.06666667  0.06666667  0.00000000       0.001
  -0.06666667  0.13333333  0.00000000       0.003
   0.13333333  0.06666667  0.00000000       0.003
  -0.06666667  0.20000000  0.00000000       0.003
  -0.20000000  0.13333333  0.00000000       0.003
   0.20000000  0.06666667  0.00000000       0.003
  -0.06666667  0.26666667  0.00000000       0.003
  -0.26666667  0.20000000  0.00000000       0.003
   0.26666667  0.06666667  0.00000000       0.003
  -0.06666667  0.33333333  0.00000000       0.003
  -0.33333333  0.26666667  0.00000000       0.003
   0.33333333  0.06666667  0.00000000       0.003
  -0.06666667  0.40000000  0.00000000       0.003
  -0.40000000  0.33333333  0.00000000       0.003
   0.40000000  0.06666667  0.00000000       0.003
  -0.06666667  0.46666667  0.00000000       0.003
  -0.46666667  0.40000000  0.00000000       0.003
   0.46666667  0.06666667  0.00000000       0.003
   0.46666667  0.46666667  0.00000000       0.001
   0.13333333  0.13333333  0.00000000       0.001
  -0.13333333  0.26666667  0.00000000       0.003
   0.20000000  0.13333333  0.00000000       0.003
  -0.13333333  0.33333333  0.00000000       0.003
  -0.33333333  0.20000000  0.00000000       0.003
   0.26666667  0.13333333  0.00000000       0.003
  -0.13333333  0.40000000  0.00000000       0.003
  -0.40000000  0.26666667  0.00000000       0.003
   0.33333333  0.13333333  0.00000000       0.003
  -0.13333333  0.46666667  0.00000000       0.003
  -0.46666667  0.33333333  0.00000000       0.003
   0.40000000  0.13333333  0.00000000       0.003
  -0.13333333 -0.46666667  0.00000000       0.003
   0.46666667  0.40000000  0.00000000       0.003
   0.20000000  0.20000000  0.00000000       0.001
  -0.20000000  0.40000000  0.00000000       0.003
   0.26666667  0.20000000  0.00000000       0.003
  -0.20000000  0.46666667  0.00000000       0.003
  -0.46666667  0.26666667  0.00000000       0.003
   0.33333333  0.20000000  0.00000000       0.003
  -0.20000000 -0.46666667  0.00000000       0.003
   0.46666667  0.33333333  0.00000000       0.003
   0.40000000  0.20000000  0.00000000       0.003
   0.40000000  0.40000000  0.00000000       0.001
   0.26666667  0.26666667  0.00000000       0.001
  -0.26666667 -0.46666667  0.00000000       0.003
   0.33333333  0.26666667  0.00000000       0.003
  -0.26666667 -0.40000000  0.00000000       0.003
   0.40000000  0.33333333  0.00000000       0.003
   0.33333333  0.33333333  0.00000000       0.001
   0.00000000  0.00000000  0.14285714       0.001
   0.06666667  0.00000000  0.14285714       0.005
  -0.06666667  0.06666667  0.14285714       0.003
   0.13333333  0.00000000  0.14285714       0.005
  -0.13333333  0.13333333  0.14285714       0.003
   0.20000000  0.00000000  0.14285714       0.005
  -0.20000000  0.20000000  0.14285714       0.003
   0.26666667  0.00000000  0.14285714       0.005
  -0.26666667  0.26666667  0.14285714       0.003
   0.33333333  0.00000000  0.14285714       0.005
  -0.33333333  0.33333333  0.14285714       0.003
   0.40000000  0.00000000  0.14285714       0.005
  -0.40000000  0.40000000  0.14285714       0.003
   0.46666667  0.00000000  0.14285714       0.005
  -0.46666667  0.46666667  0.14285714       0.003
   0.06666667  0.06666667  0.14285714       0.003
  -0.06666667  0.13333333  0.14285714       0.005
   0.13333333  0.06666667  0.14285714       0.005
  -0.06666667  0.20000000  0.14285714       0.005
  -0.20000000  0.13333333  0.14285714       0.005
   0.20000000  0.06666667  0.14285714       0.005
  -0.06666667  0.26666667  0.14285714       0.005
  -0.26666667  0.20000000  0.14285714       0.005
   0.26666667  0.06666667  0.14285714       0.005
  -0.06666667  0.33333333  0.14285714       0.005
  -0.33333333  0.26666667  0.14285714       0.005
   0.33333333  0.06666667  0.14285714       0.005
  -0.06666667  0.40000000  0.14285714       0.005
  -0.40000000  0.33333333  0.14285714       0.005
   0.40000000  0.06666667  0.14285714       0.005
  -0.06666667  0.46666667  0.14285714       0.005
  -0.46666667  0.40000000  0.14285714       0.005
   0.46666667  0.06666667  0.14285714       0.005
   0.46666667  0.46666667  0.14285714       0.003
   0.13333333  0.13333333  0.14285714       0.003
  -0.13333333  0.26666667  0.14285714       0.005
   0.20000000  0.13333333  0.14285714       0.005
  -0.13333333  0.33333333  0.14285714       0.005
  -0.33333333  0.20000000  0.14285714       0.005
   0.26666667  0.13333333  0.14285714       0.005
  -0.13333333  0.40000000  0.14285714       0.005
  -0.40000000  0.26666667  0.14285714       0.005
   0.33333333  0.13333333  0.14285714       0.005
  -0.13333333  0.46666667  0.14285714       0.005
  -0.46666667  0.33333333  0.14285714       0.005
   0.40000000  0.13333333  0.14285714       0.005
  -0.13333333 -0.46666667  0.14285714       0.005
   0.46666667  0.40000000  0.14285714       0.005
   0.20000000  0.20000000  0.14285714       0.003
  -0.20000000  0.40000000  0.14285714       0.005
   0.26666667  0.20000000  0.14285714       0.005
  -0.20000000  0.46666667  0.14285714       0.005
  -0.46666667  0.26666667  0.14285714       0.005
   0.33333333  0.20000000  0.14285714       0.005
  -0.20000000 -0.46666667  0.14285714       0.005
   0.46666667  0.33333333  0.14285714       0.005
   0.40000000  0.20000000  0.14285714       0.005
   0.40000000  0.40000000  0.14285714       0.003
   0.26666667  0.26666667  0.14285714       0.003
  -0.26666667 -0.46666667  0.14285714       0.005
   0.33333333  0.26666667  0.14285714       0.005
  -0.26666667 -0.40000000  0.14285714       0.005
   0.40000000  0.33333333  0.14285714       0.005
   0.33333333  0.33333333  0.14285714       0.003
   0.00000000  0.00000000  0.28571429       0.001
   0.06666667  0.00000000  0.28571429       0.005
  -0.06666667  0.06666667  0.28571429       0.003
   0.13333333  0.00000000  0.28571429       0.005
  -0.13333333  0.13333333  0.28571429       0.003
   0.20000000  0.00000000  0.28571429       0.005
  -0.20000000  0.20000000  0.28571429       0.003
   0.26666667  0.00000000  0.28571429       0.005
  -0.26666667  0.26666667  0.28571429       0.003
   0.33333333  0.00000000  0.28571429       0.005
  -0.33333333  0.33333333  0.28571429       0.003
   0.40000000  0.00000000  0.28571429       0.005
  -0.40000000  0.40000000  0.28571429       0.003
   0.46666667  0.00000000  0.28571429       0.005
  -0.46666667  0.46666667  0.28571429       0.003
   0.06666667  0.06666667  0.28571429       0.003
  -0.06666667  0.13333333  0.28571429       0.005
   0.13333333  0.06666667  0.28571429       0.005
  -0.06666667  0.20000000  0.28571429       0.005
  -0.20000000  0.13333333  0.28571429       0.005
   0.20000000  0.06666667  0.28571429       0.005
  -0.06666667  0.26666667  0.28571429       0.005
  -0.26666667  0.20000000  0.28571429       0.005
   0.26666667  0.06666667  0.28571429       0.005
  -0.06666667  0.33333333  0.28571429       0.005
  -0.33333333  0.26666667  0.28571429       0.005
   0.33333333  0.06666667  0.28571429       0.005
  -0.06666667  0.40000000  0.28571429       0.005
  -0.40000000  0.33333333  0.28571429       0.005
   0.40000000  0.06666667  0.28571429       0.005
  -0.06666667  0.46666667  0.28571429       0.005
  -0.46666667  0.40000000  0.28571429       0.005
   0.46666667  0.06666667  0.28571429       0.005
   0.46666667  0.46666667  0.28571429       0.003
   0.13333333  0.13333333  0.28571429       0.003
  -0.13333333  0.26666667  0.28571429       0.005
   0.20000000  0.13333333  0.28571429       0.005
  -0.13333333  0.33333333  0.28571429       0.005
  -0.33333333  0.20000000  0.28571429       0.005
   0.26666667  0.13333333  0.28571429       0.005
  -0.13333333  0.40000000  0.28571429       0.005
  -0.40000000  0.26666667  0.28571429       0.005
   0.33333333  0.13333333  0.28571429       0.005
  -0.13333333  0.46666667  0.28571429       0.005
  -0.46666667  0.33333333  0.28571429       0.005
   0.40000000  0.13333333  0.28571429       0.005
  -0.13333333 -0.46666667  0.28571429       0.005
   0.46666667  0.40000000  0.28571429       0.005
   0.20000000  0.20000000  0.28571429       0.003
  -0.20000000  0.40000000  0.28571429       0.005
   0.26666667  0.20000000  0.28571429       0.005
  -0.20000000  0.46666667  0.28571429       0.005
  -0.46666667  0.26666667  0.28571429       0.005
   0.33333333  0.20000000  0.28571429       0.005
  -0.20000000 -0.46666667  0.28571429       0.005
   0.46666667  0.33333333  0.28571429       0.005
   0.40000000  0.20000000  0.28571429       0.005
   0.40000000  0.40000000  0.28571429       0.003
   0.26666667  0.26666667  0.28571429       0.003
  -0.26666667 -0.46666667  0.28571429       0.005
   0.33333333  0.26666667  0.28571429       0.005
  -0.26666667 -0.40000000  0.28571429       0.005
   0.40000000  0.33333333  0.28571429       0.005
   0.33333333  0.33333333  0.28571429       0.003
   0.00000000  0.00000000  0.42857143       0.001
   0.06666667  0.00000000  0.42857143       0.005
  -0.06666667  0.06666667  0.42857143       0.003
   0.13333333  0.00000000  0.42857143       0.005
  -0.13333333  0.13333333  0.42857143       0.003
   0.20000000  0.00000000  0.42857143       0.005
  -0.20000000  0.20000000  0.42857143       0.003
   0.26666667  0.00000000  0.42857143       0.005
  -0.26666667  0.26666667  0.42857143       0.003
   0.33333333  0.00000000  0.42857143       0.005
  -0.33333333  0.33333333  0.42857143       0.003
   0.40000000  0.00000000  0.42857143       0.005
  -0.40000000  0.40000000  0.42857143       0.003
   0.46666667  0.00000000  0.42857143       0.005
  -0.46666667  0.46666667  0.42857143       0.003
   0.06666667  0.06666667  0.42857143       0.003
  -0.06666667  0.13333333  0.42857143       0.005
   0.13333333  0.06666667  0.42857143       0.005
  -0.06666667  0.20000000  0.42857143       0.005
  -0.20000000  0.13333333  0.42857143       0.005
   0.20000000  0.06666667  0.42857143       0.005
  -0.06666667  0.26666667  0.42857143       0.005
  -0.26666667  0.20000000  0.42857143       0.005
   0.26666667  0.06666667  0.42857143       0.005
  -0.06666667  0.33333333  0.42857143       0.005
  -0.33333333  0.26666667  0.42857143       0.005
   0.33333333  0.06666667  0.42857143       0.005
  -0.06666667  0.40000000  0.42857143       0.005
  -0.40000000  0.33333333  0.42857143       0.005
   0.40000000  0.06666667  0.42857143       0.005
  -0.06666667  0.46666667  0.42857143       0.005
  -0.46666667  0.40000000  0.42857143       0.005
   0.46666667  0.06666667  0.42857143       0.005
   0.46666667  0.46666667  0.42857143       0.003
   0.13333333  0.13333333  0.42857143       0.003
  -0.13333333  0.26666667  0.42857143       0.005
   0.20000000  0.13333333  0.42857143       0.005
  -0.13333333  0.33333333  0.42857143       0.005
  -0.33333333  0.20000000  0.42857143       0.005
   0.26666667  0.13333333  0.42857143       0.005
  -0.13333333  0.40000000  0.42857143       0.005
  -0.40000000  0.26666667  0.42857143       0.005
   0.33333333  0.13333333  0.42857143       0.005
  -0.13333333  0.46666667  0.42857143       0.005
  -0.46666667  0.33333333  0.42857143       0.005
   0.40000000  0.13333333  0.42857143       0.005
  -0.13333333 -0.46666667  0.42857143       0.005
   0.46666667  0.40000000  0.42857143       0.005
   0.20000000  0.20000000  0.42857143       0.003
  -0.20000000  0.40000000  0.42857143       0.005
   0.26666667  0.20000000  0.42857143       0.005
  -0.20000000  0.46666667  0.42857143       0.005
  -0.46666667  0.26666667  0.42857143       0.005
   0.33333333  0.20000000  0.42857143       0.005
  -0.20000000 -0.46666667  0.42857143       0.005
   0.46666667  0.33333333  0.42857143       0.005
   0.40000000  0.20000000  0.42857143       0.005
   0.40000000  0.40000000  0.42857143       0.003
   0.26666667  0.26666667  0.42857143       0.003
  -0.26666667 -0.46666667  0.42857143       0.005
   0.33333333  0.26666667  0.42857143       0.005
  -0.26666667 -0.40000000  0.42857143       0.005
   0.40000000  0.33333333  0.42857143       0.005
   0.33333333  0.33333333  0.42857143       0.003
 
 position of ions in fractional coordinates (direct lattice) 
   0.33333005  0.66666995  0.25000000
   0.66666995  0.33333005  0.75000000
 
 position of ions in cartesian coordinates  (Angst):
  -0.00001280  1.49877093  1.23670000
   1.29798036  0.74937438  3.71010000
 


--------------------------------------------------------------------------------------------------------


 k-point   1 :   0.0000 0.0000 0.0000  plane waves:     727
 k-point   2 :   0.0667 0.0000 0.0000  plane waves:     739
 k-point   3 :  -0.0667 0.0667 0.0000  plane waves:     739
 k-point   4 :   0.1333 0.0000 0.0000  plane waves:     730
 k-point   5 :  -0.1333 0.1333 0.0000  plane waves:     730
 k-point   6 :   0.2000 0.0000 0.0000  plane waves:     722
 k-point   7 :  -0.2000 0.2000 0.0000  plane waves:     722
 k-point   8 :   0.2667 0.0000 0.0000  plane waves:     722
 k-point   9 :  -0.2667 0.2667 0.0000  plane waves:     722
 k-point  10 :   0.3333 0.0000 0.0000  plane waves:     734
 k-point  11 :  -0.3333 0.3333 0.0000  plane waves:     734
 k-point  12 :   0.4000 0.0000 0.0000  plane waves:     738
 k-point  13 :  -0.4000 0.4000 0.0000  plane waves:     738
 k-point  14 :   0.4667 0.0000 0.0000  plane waves:     730
 k-point  15 :  -0.4667 0.4667 0.0000  plane waves:     730
 k-point  16 :   0.0667 0.0667 0.0000  plane waves:     727
 k-point  17 :  -0.0667 0.1333 0.0000  plane waves:     727
 k-point  18 :   0.1333 0.0667 0.0000  plane waves:     733
 k-point  19 :  -0.0667 0.2000 0.0000  plane waves:     733
 k-point  20 :  -0.2000 0.1333 0.0000  plane waves:     733
 k-point  21 :   0.2000 0.0667 0.0000  plane waves:     733
 k-point  22 :  -0.0667 0.2667 0.0000  plane waves:     733
 k-point  23 :  -0.2667 0.2000 0.0000  plane waves:     733
 k-point  24 :   0.2667 0.0667 0.0000  plane waves:     726
 k-point  25 :  -0.0667 0.3333 0.0000  plane waves:     726
 k-point  26 :  -0.3333 0.2667 0.0000  plane waves:     726
 k-point  27 :   0.3333 0.0667 0.0000  plane waves:     733
 k-point  28 :  -0.0667 0.4000 0.0000  plane waves:     733
 k-point  29 :  -0.4000 0.3333 0.0000  plane waves:     733
 k-point  30 :   0.4000 0.0667 0.0000  plane waves:     734
 k-point  31 :  -0.0667 0.4667 0.0000  plane waves:     734
 k-point  32 :  -0.4667 0.4000 0.0000  plane waves:     734
 k-point  33 :   0.4667 0.0667 0.0000  plane waves:     724
 k-point  34 :   0.4667 0.4667 0.0000  plane waves:     724
 k-point  35 :   0.1333 0.1333 0.0000  plane waves:     739
 k-point  36 :  -0.1333 0.2667 0.0000  plane waves:     739
 k-point  37 :   0.2000 0.1333 0.0000  plane waves:     735
 k-point  38 :  -0.1333 0.3333 0.0000  plane waves:     735
 k-point  39 :  -0.3333 0.2000 0.0000  plane waves:     735
 k-point  40 :   0.2667 0.1333 0.0000  plane waves:     731
 k-point  41 :  -0.1333 0.4000 0.0000  plane waves:     731
 k-point  42 :  -0.4000 0.2667 0.0000  plane waves:     731
 k-point  43 :   0.3333 0.1333 0.0000  plane waves:     733
 k-point  44 :  -0.1333 0.4667 0.0000  plane waves:     733
 k-point  45 :  -0.4667 0.3333 0.0000  plane waves:     733
 k-point  46 :   0.4000 0.1333 0.0000  plane waves:     728
 k-point  47 :  -0.1333-0.4667 0.0000  plane waves:     728
 k-point  48 :   0.4667 0.4000 0.0000  plane waves:     728
 k-point  49 :   0.2000 0.2000 0.0000  plane waves:     735
 k-point  50 :  -0.2000 0.4000 0.0000  plane waves:     735
 k-point  51 :   0.2667 0.2000 0.0000  plane waves:     735
 k-point  52 :  -0.2000 0.4667 0.0000  plane waves:     735
 k-point  53 :  -0.4667 0.2667 0.0000  plane waves:     735
 k-point  54 :   0.3333 0.2000 0.0000  plane waves:     728
 k-point  55 :  -0.2000-0.4667 0.0000  plane waves:     728
 k-point  56 :   0.4667 0.3333 0.0000  plane waves:     728
 k-point  57 :   0.4000 0.2000 0.0000  plane waves:     728
 k-point  58 :   0.4000 0.4000 0.0000  plane waves:     728
 k-point  59 :   0.2667 0.2667 0.0000  plane waves:     727
 k-point  60 :  -0.2667-0.4667 0.0000  plane waves:     727
 k-point  61 :   0.3333 0.2667 0.0000  plane waves:     725
 k-point  62 :  -0.2667-0.4000 0.0000  plane waves:     725
 k-point  63 :   0.4000 0.3333 0.0000  plane waves:     725
 k-point  64 :   0.3333 0.3333 0.0000  plane waves:     735
 k-point  65 :   0.0000 0.0000 0.1429  plane waves:     750
 k-point  66 :   0.0667 0.0000 0.1429  plane waves:     735
 k-point  67 :  -0.0667 0.0667 0.1429  plane waves:     735
 k-point  68 :   0.1333 0.0000 0.1429  plane waves:     727
 k-point  69 :  -0.1333 0.1333 0.1429  plane waves:     727
 k-point  70 :   0.2000 0.0000 0.1429  plane waves:     728
 k-point  71 :  -0.2000 0.2000 0.1429  plane waves:     728
 k-point  72 :   0.2667 0.0000 0.1429  plane waves:     730
 k-point  73 :  -0.2667 0.2667 0.1429  plane waves:     730
 k-point  74 :   0.3333 0.0000 0.1429  plane waves:     727
 k-point  75 :  -0.3333 0.3333 0.1429  plane waves:     727
 k-point  76 :   0.4000 0.0000 0.1429  plane waves:     732
 k-point  77 :  -0.4000 0.4000 0.1429  plane waves:     732
 k-point  78 :   0.4667 0.0000 0.1429  plane waves:     731
 k-point  79 :  -0.4667 0.4667 0.1429  plane waves:     731
 k-point  80 :   0.0667 0.0667 0.1429  plane waves:     727
 k-point  81 :  -0.0667 0.1333 0.1429  plane waves:     727
 k-point  82 :   0.1333 0.0667 0.1429  plane waves:     730
 k-point  83 :  -0.0667 0.2000 0.1429  plane waves:     730
 k-point  84 :  -0.2000 0.1333 0.1429  plane waves:     730
 k-point  85 :   0.2000 0.0667 0.1429  plane waves:     730
 k-point  86 :  -0.0667 0.2667 0.1429  plane waves:     730
 k-point  87 :  -0.2667 0.2000 0.1429  plane waves:     730
 k-point  88 :   0.2667 0.0667 0.1429  plane waves:     731
 k-point  89 :  -0.0667 0.3333 0.1429  plane waves:     731
 k-point  90 :  -0.3333 0.2667 0.1429  plane waves:     731
 k-point  91 :   0.3333 0.0667 0.1429  plane waves:     735
 k-point  92 :  -0.0667 0.4000 0.1429  plane waves:     735
 k-point  93 :  -0.4000 0.3333 0.1429  plane waves:     735
 k-point  94 :   0.4000 0.0667 0.1429  plane waves:     735
 k-point  95 :  -0.0667 0.4667 0.1429  plane waves:     735
 k-point  96 :  -0.4667 0.4000 0.1429  plane waves:     735
 k-point  97 :   0.4667 0.0667 0.1429  plane waves:     732
 k-point  98 :   0.4667 0.4667 0.1429  plane waves:     732
 k-point  99 :   0.1333 0.1333 0.1429  plane waves:     732
 k-point 100 :  -0.1333 0.2667 0.1429  plane waves:     732
 k-point 101 :   0.2000 0.1333 0.1429  plane waves:     735
 k-point 102 :  -0.1333 0.3333 0.1429  plane waves:     735
 k-point 103 :  -0.3333 0.2000 0.1429  plane waves:     735
 k-point 104 :   0.2667 0.1333 0.1429  plane waves:     738
 k-point 105 :  -0.1333 0.4000 0.1429  plane waves:     738
 k-point 106 :  -0.4000 0.2667 0.1429  plane waves:     738
 k-point 107 :   0.3333 0.1333 0.1429  plane waves:     737
 k-point 108 :  -0.1333 0.4667 0.1429  plane waves:     737
 k-point 109 :  -0.4667 0.3333 0.1429  plane waves:     737
 k-point 110 :   0.4000 0.1333 0.1429  plane waves:     729
 k-point 111 :  -0.1333-0.4667 0.1429  plane waves:     729
 k-point 112 :   0.4667 0.4000 0.1429  plane waves:     729
 k-point 113 :   0.2000 0.2000 0.1429  plane waves:     736
 k-point 114 :  -0.2000 0.4000 0.1429  plane waves:     736
 k-point 115 :   0.2667 0.2000 0.1429  plane waves:     737
 k-point 116 :  -0.2000 0.4667 0.1429  plane waves:     737
 k-point 117 :  -0.4667 0.2667 0.1429  plane waves:     737
 k-point 118 :   0.3333 0.2000 0.1429  plane waves:     732
 k-point 119 :  -0.2000-0.4667 0.1429  plane waves:     732
 k-point 120 :   0.4667 0.3333 0.1429  plane waves:     732
 k-point 121 :   0.4000 0.2000 0.1429  plane waves:     731
 k-point 122 :   0.4000 0.4000 0.1429  plane waves:     731
 k-point 123 :   0.2667 0.2667 0.1429  plane waves:     729
 k-point 124 :  -0.2667-0.4667 0.1429  plane waves:     729
 k-point 125 :   0.3333 0.2667 0.1429  plane waves:     724
 k-point 126 :  -0.2667-0.4000 0.1429  plane waves:     724
 k-point 127 :   0.4000 0.3333 0.1429  plane waves:     724
 k-point 128 :   0.3333 0.3333 0.1429  plane waves:     726
 k-point 129 :   0.0000 0.0000 0.2857  plane waves:     750
 k-point 130 :   0.0667 0.0000 0.2857  plane waves:     739
 k-point 131 :  -0.0667 0.0667 0.2857  plane waves:     739
 k-point 132 :   0.1333 0.0000 0.2857  plane waves:     737
 k-point 133 :  -0.1333 0.1333 0.2857  plane waves:     737
 k-point 134 :   0.2000 0.0000 0.2857  plane waves:     733
 k-point 135 :  -0.2000 0.2000 0.2857  plane waves:     733
 k-point 136 :   0.2667 0.0000 0.2857  plane waves:     733
 k-point 137 :  -0.2667 0.2667 0.2857  plane waves:     733
 k-point 138 :   0.3333 0.0000 0.2857  plane waves:     734
 k-point 139 :  -0.3333 0.3333 0.2857  plane waves:     734
 k-point 140 :   0.4000 0.0000 0.2857  plane waves:     738
 k-point 141 :  -0.4000 0.4000 0.2857  plane waves:     738
 k-point 142 :   0.4667 0.0000 0.2857  plane waves:     733
 k-point 143 :  -0.4667 0.4667 0.2857  plane waves:     733
 k-point 144 :   0.0667 0.0667 0.2857  plane waves:     736
 k-point 145 :  -0.0667 0.1333 0.2857  plane waves:     736
 k-point 146 :   0.1333 0.0667 0.2857  plane waves:     730
 k-point 147 :  -0.0667 0.2000 0.2857  plane waves:     730
 k-point 148 :  -0.2000 0.1333 0.2857  plane waves:     730
 k-point 149 :   0.2000 0.0667 0.2857  plane waves:     730
 k-point 150 :  -0.0667 0.2667 0.2857  plane waves:     730
 k-point 151 :  -0.2667 0.2000 0.2857  plane waves:     730
 k-point 152 :   0.2667 0.0667 0.2857  plane waves:     733
 k-point 153 :  -0.0667 0.3333 0.2857  plane waves:     733
 k-point 154 :  -0.3333 0.2667 0.2857  plane waves:     733
 k-point 155 :   0.3333 0.0667 0.2857  plane waves:     735
 k-point 156 :  -0.0667 0.4000 0.2857  plane waves:     735
 k-point 157 :  -0.4000 0.3333 0.2857  plane waves:     735
 k-point 158 :   0.4000 0.0667 0.2857  plane waves:     736
 k-point 159 :  -0.0667 0.4667 0.2857  plane waves:     736
 k-point 160 :  -0.4667 0.4000 0.2857  plane waves:     736
 k-point 161 :   0.4667 0.0667 0.2857  plane waves:     734
 k-point 162 :   0.4667 0.4667 0.2857  plane waves:     734
 k-point 163 :   0.1333 0.1333 0.2857  plane waves:     730
 k-point 164 :  -0.1333 0.2667 0.2857  plane waves:     730
 k-point 165 :   0.2000 0.1333 0.2857  plane waves:     735
 k-point 166 :  -0.1333 0.3333 0.2857  plane waves:     735
 k-point 167 :  -0.3333 0.2000 0.2857  plane waves:     735
 k-point 168 :   0.2667 0.1333 0.2857  plane waves:     737
 k-point 169 :  -0.1333 0.4000 0.2857  plane waves:     737
 k-point 170 :  -0.4000 0.2667 0.2857  plane waves:     737
 k-point 171 :   0.3333 0.1333 0.2857  plane waves:     733
 k-point 172 :  -0.1333 0.4667 0.2857  plane waves:     733
 k-point 173 :  -0.4667 0.3333 0.2857  plane waves:     733
 k-point 174 :   0.4000 0.1333 0.2857  plane waves:     732
 k-point 175 :  -0.1333-0.4667 0.2857  plane waves:     732
 k-point 176 :   0.4667 0.4000 0.2857  plane waves:     732
 k-point 177 :   0.2000 0.2000 0.2857  plane waves:     738
 k-point 178 :  -0.2000 0.4000 0.2857  plane waves:     738
 k-point 179 :   0.2667 0.2000 0.2857  plane waves:     733
 k-point 180 :  -0.2000 0.4667 0.2857  plane waves:     733
 k-point 181 :  -0.4667 0.2667 0.2857  plane waves:     733
[...]
     15       9.4878      0.00000
     16      10.3136      0.00000
     17      12.8813      0.00000
     18      14.6912      0.00000
     19      18.1374      0.00000
     20      19.8273      0.00000
     21      21.6174      0.00000
     22      23.6651      0.00000
     23      28.1697      0.00000
     24      28.8846      0.00000

 k-point   247 :      -0.2000   -0.4667    0.4286
  band No.  band energies     occupation 
      1      -4.8508      2.00000
      2      -4.8016      2.00000
      3      -4.6726      2.00000
      4      -4.6310      2.00000
      5      -4.2496      2.00000
      6      -4.1287      2.00000
      7      -3.9859      2.00000
      8      -3.9502      2.00000
      9      -3.7097      2.00000
     10      -3.6348      2.00000
     11       1.2003      2.00000
     12       2.0201      2.00000
     13       5.6264      0.00000
     14       6.4248      0.00000
     15       9.4878      0.00000
     16      10.3136      0.00000
     17      12.8813      0.00000
     18      14.6912      0.00000
     19      18.1374      0.00000
     20      19.8273      0.00000
     21      21.6174      0.00000
     22      23.6651      0.00000
     23      28.1697      0.00000
     24      28.8846      0.00000

 k-point   248 :       0.4667    0.3333    0.4286
  band No.  band energies     occupation 
      1      -4.8508      2.00000
      2      -4.8016      2.00000
      3      -4.6726      2.00000
      4      -4.6310      2.00000
      5      -4.2496      2.00000
      6      -4.1288      2.00000
      7      -3.9859      2.00000
      8      -3.9502      2.00000
      9      -3.7097      2.00000
     10      -3.6348      2.00000
     11       1.2003      2.00000
     12       2.0201      2.00000
     13       5.6263      0.00000
     14       6.4247      0.00000
     15       9.4878      0.00000
     16      10.3137      0.00000
     17      12.8813      0.00000
     18      14.6913      0.00000
     19      18.1374      0.00000
     20      19.8273      0.00000
     21      21.6174      0.00000
     22      23.6651      0.00000
     23      28.1697      0.00000
     24      28.8846      0.00000

 k-point   249 :       0.4000    0.2000    0.4286
  band No.  band energies     occupation 
      1      -4.8619      2.00000
      2      -4.8161      2.00000
      3      -4.6740      2.00000
      4      -4.6438      2.00000
      5      -4.2597      2.00000
      6      -4.1278      2.00000
      7      -3.9006      2.00000
      8      -3.8951      2.00000
      9      -3.7214      2.00000
     10      -3.6861      2.00000
     11       2.7150      2.00000
     12       2.8492      2.00000
     13       4.5790      0.00000
     14       4.6216      0.00000
     15       9.3484      0.00000
     16      10.1999      0.00000
     17      14.0764      0.00000
     18      14.4516      0.00000
     19      18.0239      0.00000
     20      18.5500      0.00000
     21      21.3918      0.00000
     22      23.5259      0.00000
     23      28.1085      0.00000
     24      28.8244      0.00000

 k-point   250 :       0.4000    0.4000    0.4286
  band No.  band energies     occupation 
      1      -4.8619      2.00000
      2      -4.8161      2.00000
      3      -4.6740      2.00000
      4      -4.6438      2.00000
      5      -4.2597      2.00000
      6      -4.1278      2.00000
      7      -3.9006      2.00000
      8      -3.8951      2.00000
      9      -3.7214      2.00000
     10      -3.6861      2.00000
     11       2.7150      2.00000
     12       2.8492      2.00000
     13       4.5790      0.00000
     14       4.6216      0.00000
     15       9.3484      0.00000
     16      10.1999      0.00000
     17      14.0764      0.00000
     18      14.4516      0.00000
     19      18.0238      0.00000
     20      18.5500      0.00000
     21      21.3918      0.00000
     22      23.5259      0.00000
     23      28.1085      0.00000
     24      28.8244      0.00000

 k-point   251 :       0.2667    0.2667    0.4286
  band No.  band energies     occupation 
      1      -4.7627      2.00000
      2      -4.7180      2.00000
      3      -4.5909      2.00000
      4      -4.5203      2.00000
      5      -4.3450      2.00000
      6      -4.2486      2.00000
      7      -4.0986      2.00000
      8      -4.0475      2.00000
      9      -3.7087      2.00000
     10      -3.6333      2.00000
     11       1.1222      2.00000
     12       1.9697      2.00000
     13       7.3407      0.00000
     14       7.4177      0.00000
     15       8.2628      0.00000
     16       8.2853      0.00000
     17      12.7920      0.00000
     18      14.8385      0.00000
     19      18.9489      0.00000
     20      19.6252      0.00000
     21      21.9248      0.00000
     22      22.2195      0.00000
     23      30.9072      0.00000
     24      31.3161      0.00000

 k-point   252 :      -0.2667   -0.4667    0.4286
  band No.  band energies     occupation 
      1      -4.7627      2.00000
      2      -4.7180      2.00000
      3      -4.5908      2.00000
      4      -4.5203      2.00000
      5      -4.3451      2.00000
      6      -4.2486      2.00000
      7      -4.0986      2.00000
      8      -4.0475      2.00000
      9      -3.7087      2.00000
     10      -3.6333      2.00000
     11       1.1222      2.00000
     12       1.9697      2.00000
     13       7.3407      0.00000
     14       7.4177      0.00000
     15       8.2628      0.00000
     16       8.2853      0.00000
     17      12.7920      0.00000
     18      14.8385      0.00000
     19      18.9488      0.00000
     20      19.6252      0.00000
     21      21.9248      0.00000
     22      22.2195      0.00000
     23      30.9072      0.00000
     24      31.3162      0.00000

 k-point   253 :       0.3333    0.2667    0.4286
  band No.  band energies     occupation 
      1      -4.7219      2.00000
      2      -4.6668      2.00000
      3      -4.5825      2.00000
      4      -4.5195      2.00000
      5      -4.3646      2.00000
      6      -4.2577      2.00000
      7      -4.0762      2.00000
      8      -4.0523      2.00000
      9      -3.7291      2.00000
     10      -3.6890      2.00000
     11       2.8528      2.00000
     12       3.5800      0.61533
     13       5.2799      0.00000
     14       5.9849      0.00000
     15       7.1888      0.00000
     16       8.0043      0.00000
     17      14.2124      0.00000
     18      15.3397      0.00000
     19      17.7832      0.00000
     20      19.1256      0.00000
     21      20.5874      0.00000
     22      21.8170      0.00000
     23      31.3190      0.00000
     24      32.1245      0.00000

 k-point   254 :      -0.2667   -0.4000    0.4286
  band No.  band energies     occupation 
      1      -4.7219      2.00000
      2      -4.6668      2.00000
      3      -4.5825      2.00000
      4      -4.5195      2.00000
      5      -4.3646      2.00000
      6      -4.2577      2.00000
      7      -4.0762      2.00000
      8      -4.0523      2.00000
      9      -3.7291      2.00000
     10      -3.6890      2.00000
     11       2.8528      2.00000
     12       3.5800      0.61535
     13       5.2799      0.00000
     14       5.9849      0.00000
     15       7.1888      0.00000
     16       8.0043      0.00000
     17      14.2124      0.00000
     18      15.3397      0.00000
     19      17.7832      0.00000
     20      19.1255      0.00000
     21      20.5874      0.00000
     22      21.8170      0.00000
     23      31.3190      0.00000
     24      32.1245      0.00000

 k-point   255 :       0.4000    0.3333    0.4286
  band No.  band energies     occupation 
      1      -4.7219      2.00000
      2      -4.6668      2.00000
      3      -4.5825      2.00000
      4      -4.5195      2.00000
      5      -4.3646      2.00000
      6      -4.2578      2.00000
      7      -4.0762      2.00000
      8      -4.0523      2.00000
      9      -3.7291      2.00000
     10      -3.6890      2.00000
     11       2.8528      2.00000
     12       3.5800      0.61519
     13       5.2799      0.00000
     14       5.9848      0.00000
     15       7.1888      0.00000
     16       8.0043      0.00000
     17      14.2124      0.00000
     18      15.3397      0.00000
     19      17.7832      0.00000
     20      19.1255      0.00000
     21      20.5874      0.00000
     22      21.8170      0.00000
     23      31.3190      0.00000
     24      32.1245      0.00000

 k-point   256 :       0.3333    0.3333    0.4286
  band No.  band energies     occupation 
      1      -4.6151      2.00000
      2      -4.6151      2.00000
      3      -4.5572      2.00000
      4      -4.4950      2.00000
      5      -4.3398      2.00000
      6      -4.3398      2.00000
      7      -4.1582      2.00000
      8      -4.1099      2.00000
      9      -3.7232      2.00000
     10      -3.7232      2.00000
     11       4.4788      0.00000
     12       4.4788      0.00000
     13       4.9710      0.00000
     14       5.8564      0.00000
     15       6.1838      0.00000
     16       6.1838      0.00000
     17      15.3498      0.00000
     18      15.3498      0.00000
     19      17.0258      0.00000
     20      19.4608      0.00000
     21      20.4908      0.00000
     22      20.4908      0.00000
     23      34.5298      0.00000
     24      34.8610      0.00000


--------------------------------------------------------------------------------------------------------


 soft charge-density along one line, spin component           1
         0         1         2         3         4         5         6         7         8         9
 total charge-density along one line
 
 pseudopotential strength for first ion, spin component:           1
-10.154   0.000   0.000   0.000   0.000 -10.495   0.000   0.000
  0.000 -10.155   0.000  -0.000  -0.000   0.000 -10.496   0.000
  0.000   0.000 -10.161   0.000  -0.000   0.000   0.000 -10.502
  0.000  -0.000   0.000 -10.155  -0.000   0.000  -0.000   0.000
  0.000  -0.000  -0.000  -0.000 -10.154   0.000  -0.000  -0.000
-10.495   0.000   0.000   0.000   0.000 -10.763   0.000   0.000
  0.000 -10.496   0.000  -0.000  -0.000   0.000 -10.764   0.000
  0.000   0.000 -10.502   0.000  -0.000   0.000   0.000 -10.769
  0.000  -0.000   0.000 -10.496  -0.000   0.000  -0.000   0.000
  0.000  -0.000  -0.000  -0.000 -10.495   0.000  -0.000  -0.000
 -0.000   0.000  -0.002   0.000  -0.000  -0.000   0.000  -0.002
 -0.000   0.000  -0.004   0.000  -0.000  -0.000   0.000  -0.004
  0.000   0.000   0.000  -0.000   0.000   0.000   0.000   0.000
 -0.000  -0.000  -0.000   0.000  -0.000  -0.000  -0.000  -0.000
  0.000  -0.000  -0.000  -0.000   0.000   0.000  -0.000  -0.000
  0.000   0.000   0.000  -0.000  -0.000   0.000   0.000   0.000
 -0.000  -0.000  -0.000   0.000  -0.000  -0.000  -0.000  -0.000
 -0.000  -0.000  -0.000  -0.000   0.000  -0.000  -0.000  -0.000
 total augmentation occupancy for first ion, spin component:           1
  2.896   0.000  -0.000  -0.000  -0.000  -0.938   0.000  -0.000  -0.000   0.000  -0.000  -0.000  -0.000   0.000   0.078   0.000
  0.000   2.707   0.000   0.000   0.000   0.000  -0.660   0.000  -0.000   0.000   0.000  -0.000  -0.000  -0.000   0.000   0.000
 -0.000   0.000   3.207  -0.000   0.000  -0.000  -0.000  -1.173  -0.000   0.000   0.415  -0.015  -0.000  -0.000   0.000   0.000
  0.000   0.000  -0.000   2.707  -0.000   0.000  -0.000   0.000  -0.660   0.000   0.000  -0.000  -0.000   0.000   0.000   0.000
 -0.000   0.000   0.000  -0.000   2.896   0.000   0.000   0.000  -0.000  -0.938   0.000   0.000   0.078  -0.000  -0.000  -0.005
 -0.938  -0.000  -0.000   0.000   0.000   0.961   0.000   0.000  -0.000  -0.000   0.000   0.000   0.000  -0.000  -0.072   0.000
  0.000  -0.660  -0.000  -0.000   0.000   0.000   0.600   0.000   0.000   0.000   0.000  -0.000   0.000   0.000  -0.000  -0.000
 -0.000  -0.000  -1.173   0.000   0.000   0.000   0.000   1.123   0.000  -0.000  -0.430   0.042   0.000   0.000  -0.000  -0.000
 -0.000  -0.000  -0.000  -0.660   0.000  -0.000   0.000  -0.000   0.600   0.000  -0.000  -0.000   0.000  -0.000  -0.000  -0.000
  0.000  -0.000   0.000   0.000  -0.938  -0.000   0.000  -0.000   0.000   0.961  -0.000  -0.000  -0.072   0.000   0.000   0.006
 -0.000   0.000   0.415   0.000   0.000   0.000   0.000  -0.430  -0.000  -0.000   2.415  -0.468   0.000   0.000  -0.000  -0.000
 -0.000  -0.000  -0.015  -0.000   0.000   0.000  -0.000   0.042  -0.000  -0.000  -0.468   0.138   0.000   0.000  -0.000   0.000
 -0.000  -0.000  -0.000  -0.000   0.078   0.000  -0.000   0.000   0.000  -0.072   0.000   0.000   0.383  -0.000   0.000  -0.053
  0.000  -0.000  -0.000   0.000  -0.000  -0.000   0.000   0.000  -0.000   0.000   0.000   0.000  -0.000   0.258  -0.000   0.000
  0.078   0.000   0.000   0.000  -0.000  -0.072   0.000  -0.000   0.000   0.000  -0.000  -0.000   0.000  -0.000   0.383  -0.000
  0.000   0.000   0.000  -0.000  -0.005   0.000   0.000  -0.000   0.000   0.006  -0.000   0.000  -0.053   0.000  -0.000   0.010
 -0.000   0.000   0.000  -0.000   0.000   0.000  -0.000   0.000   0.000   0.000   0.000   0.000   0.000  -0.037   0.000  -0.000
 -0.005   0.000  -0.000   0.000   0.000   0.006  -0.000   0.000  -0.000   0.000   0.000  -0.000  -0.000   0.000  -0.053   0.000


------------------------ aborting loop because EDIFF is reached ----------------------------------------





 total charge

# of ion       s       p       d       tot
------------------------------------------
    1        0.604   0.490   9.722  10.816
    2        0.604   0.490   9.722  10.816
--------------------------------------------------
tot          1.207   0.979  19.445  21.631
 
    CHARGE:  cpu time      0.0868: real time      0.0874
    FORLOC:  cpu time      0.0014: real time      0.0015
    FORNL :  cpu time      0.1689: real time      0.1703
    STRESS:  cpu time      1.8527: real time      1.8705
    FORCOR:  cpu time      0.0095: real time      0.0096
    FORHAR:  cpu time      0.0036: real time      0.0037
    MIXING:  cpu time      0.0009: real time      0.0009
    OFIELD:  cpu time      0.0001: real time      0.0001

 ---------------------------------------------------------------------------------------------

         DFTD3 V3.0 Rev 1        
 IVDW         = 11
 DF pbe       
 parameters
 VDW_S6       =    1.0000
 VDW_S8       =    0.7220
 VDW_SR       =    1.2170
 rs18     =    1.0000
 alpha6   =   14.0000
 alpha8   =   16.0000
 k1-k3    =   16.0000    1.3333   -4.0000
 VDW_RADIUS   =   50.2022 A
 VDW_CNRADIUS =   21.1671 A
 Edisp (eV)   -0.73250

 E6    (eV) :    -0.3301
 E8    (eV) :    -0.4024
 % E8        : 54.94
    FORVDW:  cpu time      0.0355: real time      0.0359

  FORCE on cell =-STRESS in cart. coord.  units (eV):
  Direction    XX          YY          ZZ          XY          YZ          ZX
  --------------------------------------------------------------------------------------
  Alpha Z   219.29877   219.29877   219.29877
  Ewald    -748.64200  -748.64049  -952.73671     0.00117    -0.00000    -0.00000
  Hartree   354.43673   354.43756   229.77148     0.00070    -0.00000    -0.00000
  E(xc)    -144.22635  -144.22635  -144.41447     0.00000    -0.00000    -0.00000
  Local     160.66001   160.65757   487.29115    -0.00201     0.00000     0.00000
  n-local   -64.77992   -64.82119   -65.46340     0.01194    -0.31005     0.01512
  augment    82.66206    82.66216    83.47020     0.00012    -0.00000    -0.00000
  Kinetic   142.82881   140.22040   143.71163     0.75298    -2.13227     0.21424
  Fock        0.00000     0.00000     0.00000     0.00000     0.00000     0.00000
  vdW        -0.94565    -0.94566    -0.73819    -0.00000     0.00000     0.00000
  -------------------------------------------------------------------------------------
  Total      -0.03240    -0.03240     0.19046    -0.00000     0.00000     0.00000
  in kB      -1.79786    -1.79800    10.57008    -0.00012     0.00000     0.00000
  external pressure =        2.32 kB  Pullay stress =        0.00 kB


 VOLUME and BASIS-vectors are now :
 -----------------------------------------------------------------------------
  energy-cutoff  :      500.00
  volume of cell :       28.87
      direct lattice vectors                 reciprocal lattice vectors
     2.595935120  0.000000000  0.000000000     0.385217640  0.222405552  0.000000000
    -1.297967560  2.248145311  0.000000000     0.000000000  0.444811105  0.000000000
     0.000000000  0.000000000  4.946800000     0.000000000  0.000000000  0.202150885

  length of vectors
     2.595935120  2.595934731  4.946800000     0.444811038  0.444811105  0.202150885


 FORCES acting on ions
    electron-ion (+dipol)            ewald-force                    non-local-force                 convergence-correction
 -----------------------------------------------------------------------------------------------
   -.518E-03 0.307E-03 0.532E-11   0.467E-03 -.279E-03 -.506E-13   0.658E-04 -.380E-04 -.867E-18   0.594E-07 -.339E-07 0.142E-12
   0.518E-03 -.307E-03 0.832E-11   -.467E-03 0.279E-03 0.506E-13   -.658E-04 0.380E-04 0.867E-18   -.594E-07 0.339E-07 -.606E-13
 -----------------------------------------------------------------------------------------------
   -.791E-12 0.217E-11 0.136E-10   0.596E-14 -.123E-13 0.000E+00   -.694E-17 0.000E+00 0.000E+00   -.110E-13 0.575E-13 0.809E-13
 
 
 POSITION                                       TOTAL-FORCE (eV/Angst)
 -----------------------------------------------------------------------------------
     -0.00001      1.49877      1.23670         0.000015     -0.000009      0.000000
      1.29798      0.74937      3.71010        -0.000015      0.000009      0.000000
 -----------------------------------------------------------------------------------
    total drift:                               -0.000000      0.000000      0.000000


--------------------------------------------------------------------------------------------------------



  FREE ENERGIE OF THE ION-ELECTRON SYSTEM (eV)
  ---------------------------------------------------
  free  energy   TOTEN  =        -2.93214991 eV

  energy  without entropy=       -2.93134130  energy(sigma->0) =       -2.93174561
 


--------------------------------------------------------------------------------------------------------


    POTLOK:  cpu time      0.2565: real time      0.2584


--------------------------------------------------------------------------------------------------------


 writing wavefunctions
     LOOP+:  cpu time    426.5921: real time    571.4333
    4ORBIT:  cpu time      0.0000: real time      0.0000



 total charge

# of ion       s       p       d       tot
------------------------------------------
    1        0.604   0.490   9.722  10.816
    2        0.604   0.490   9.722  10.816
--------------------------------------------------
tot          1.207   0.979  19.445  21.631
 

 total amount of memory used by VASP MPI-rank0    63452. kBytes
=======================================================================

   base      :      30000. kBytes
   nonl-proj :      28336. kBytes
   fftplans  :        879. kBytes
   grid      :        864. kBytes
   one-center:         31. kBytes
   wavefun   :       3342. kBytes
 
  
  
 General timing and accounting informations for this job:
 ========================================================
  
                  Total CPU time used (sec):      488.100
                            User time (sec):      487.125
                          System time (sec):        0.976
                         Elapsed time (sec):      655.514
  
                   Maximum memory used (kb):      310116.
                   Average memory used (kb):          N/A
  
                          Minor page faults:        21669
                          Major page faults:            1
                 Voluntary context switches:          735
